 Entering Gaussian System, Link 0=/software/sse/easybuild/prefix/software/Gaussian/16.C.01-avx2-nsc1/g16/g16.orig
 Input=imidazolium.wrap
 Output=imidazolium.log
 Initial command:
 /software/sse/easybuild/prefix/software/Gaussian/16.C.01-avx2-nsc1/g16/l1.exe "/scratch/local/Gau-1592413.inp" -scrdir="/scratch/local/"
 Entering Link 1 = /software/sse/easybuild/prefix/software/Gaussian/16.C.01-avx2-nsc1/g16/l1.exe PID=   1592414.
  
 Copyright (c) 1988-2019, Gaussian, Inc.  All Rights Reserved.
  
 This is part of the Gaussian(R) 16 program.  It is based on
 the Gaussian(R) 09 system (copyright 2009, Gaussian, Inc.),
 the Gaussian(R) 03 system (copyright 2003, Gaussian, Inc.),
 the Gaussian(R) 98 system (copyright 1998, Gaussian, Inc.),
 the Gaussian(R) 94 system (copyright 1995, Gaussian, Inc.),
 the Gaussian 92(TM) system (copyright 1992, Gaussian, Inc.),
 the Gaussian 90(TM) system (copyright 1990, Gaussian, Inc.),
 the Gaussian 88(TM) system (copyright 1988, Gaussian, Inc.),
 the Gaussian 86(TM) system (copyright 1986, Carnegie Mellon
 University), and the Gaussian 82(TM) system (copyright 1983,
 Carnegie Mellon University). Gaussian is a federally registered
 trademark of Gaussian, Inc.
  
 This software contains proprietary and confidential information,
 including trade secrets, belonging to Gaussian, Inc.
  
 This software is provided under written license and may be
 used, copied, transmitted, or stored only in accord with that
 written license.
  
 The following legend is applicable only to US Government
 contracts under FAR:
  
                    RESTRICTED RIGHTS LEGEND
  
 Use, reproduction and disclosure by the US Government is
 subject to restrictions as set forth in subparagraphs (a)
 and (c) of the Commercial Computer Software - Restricted
 Rights clause in FAR 52.227-19.
  
 Gaussian, Inc.
 340 Quinnipiac St., Bldg. 40, Wallingford CT 06492
  
  
 ---------------------------------------------------------------
 Warning -- This program may not be used in any manner that
 competes with the business of Gaussian, Inc. or will provide
 assistance to any competitor of Gaussian, Inc.  The licensee
 of this program is prohibited from giving any competitor of
 Gaussian, Inc. access to this program.  By using this program,
 the user acknowledges that Gaussian, Inc. is engaged in the
 business of creating and licensing software in the field of
 computational chemistry and represents and warrants to the
 licensee that it is not a competitor of Gaussian, Inc. and that
 it will not use this program in any manner prohibited above.
 ---------------------------------------------------------------
  

 Cite this work as:
 Gaussian 16, Revision C.01,
 M. J. Frisch, G. W. Trucks, H. B. Schlegel, G. E. Scuseria, 
 M. A. Robb, J. R. Cheeseman, G. Scalmani, V. Barone, 
 G. A. Petersson, H. Nakatsuji, X. Li, M. Caricato, A. V. Marenich, 
 J. Bloino, B. G. Janesko, R. Gomperts, B. Mennucci, H. P. Hratchian, 
 J. V. Ortiz, A. F. Izmaylov, J. L. Sonnenberg, D. Williams-Young, 
 F. Ding, F. Lipparini, F. Egidi, J. Goings, B. Peng, A. Petrone, 
 T. Henderson, D. Ranasinghe, V. G. Zakrzewski, J. Gao, N. Rega, 
 G. Zheng, W. Liang, M. Hada, M. Ehara, K. Toyota, R. Fukuda, 
 J. Hasegawa, M. Ishida, T. Nakajima, Y. Honda, O. Kitao, H. Nakai, 
 T. Vreven, K. Throssell, J. A. Montgomery, Jr., J. E. Peralta, 
 F. Ogliaro, M. J. Bearpark, J. J. Heyd, E. N. Brothers, K. N. Kudin, 
 V. N. Staroverov, T. A. Keith, R. Kobayashi, J. Normand, 
 K. Raghavachari, A. P. Rendell, J. C. Burant, S. S. Iyengar, 
 J. Tomasi, M. Cossi, J. M. Millam, M. Klene, C. Adamo, R. Cammi, 
 J. W. Ochterski, R. L. Martin, K. Morokuma, O. Farkas, 
 J. B. Foresman, and D. J. Fox, Gaussian, Inc., Wallingford CT, 2019.
 
 ******************************************
 Gaussian 16:  ES64L-G16RevC.01  3-Jul-2019
                30-Sep-2025 
 ******************************************
 %mem=12000MB
 %nprocshared=16
 Will use up to   16 processors via shared memory.
 %mem=32Gb
 %chk=imidazolium.chk
 ----------------------------------------------------------------------
 #P HF/aug-cc-pvtz Opt=tight Pop=(MK,Hirshfeld) iop(6/33=2) iop(6/42=6)
  maxdisk=128GB
 ----------------------------------------------------------------------
 1/7=10,18=20,19=15,38=1/1,3;
 2/9=110,12=2,17=6,18=5,40=1/2;
 3/5=16,6=1,7=10,11=9,25=1,30=1,71=1/1,2,3;
 4//1;
 5/5=2,38=5/2;
 6/7=2,8=2,9=2,10=2,15=8,20=1,28=1,33=2,42=6,79=1/1,2;
 7//1,2,3,16;
 1/7=10,18=20,19=15/3(2);
 2/9=110/2;
 99//99;
 2/9=110/2;
 3/5=16,6=1,7=10,11=9,25=1,30=1,71=1/1,2,3;
 4/5=5,16=3,69=1/1;
 5/5=2,38=5/2;
 7//1,2,3,16;
 1/7=10,18=20,19=15/3(-5);
 2/9=110/2;
 6/7=2,8=2,9=2,10=2,15=8,19=2,20=1,28=1,33=2,42=6,79=1/1,2;
 99/9=1/99;
 Leave Link    1 at Tue Sep 30 16:58:49 2025, MaxMem=  4294967296 cpu:               0.9 elap:               0.1
 (Enter /software/sse/easybuild/prefix/software/Gaussian/16.C.01-avx2-nsc1/g16/l101.exe)
 -----------
 imidazolium
 -----------
 Symbolic Z-matrix:
 Charge =  1 Multiplicity = 1
 C                     0.       -0.66777   0.9711 
 C                     0.        0.66777   0.9711 
 N                     0.        1.05991  -0.35192 
 C                     0.        0.       -1.12002 
 N                     0.       -1.05991  -0.35192 
 H                     0.       -1.36899   1.77359 
 H                     0.        1.36899   1.77359 
 H                     0.        1.99867  -0.68256 
 H                     0.        0.       -2.18832 
 H                     0.       -1.99867  -0.68256 
 
 ITRead=  0  0  0  0  0  0  0  0  0  0
 MicOpt= -1 -1 -1 -1 -1 -1 -1 -1 -1 -1
 NAtoms=     10 NQM=       10 NQMF=       0 NMMI=      0 NMMIF=      0
                NMic=       0 NMicF=      0.
                    Isotopes and Nuclear Properties:
 (Nuclear quadrupole moments (NQMom) in fm**2, nuclear magnetic moments (NMagM)
  in nuclear magnetons)

  Atom         1           2           3           4           5           6           7           8           9          10
 IAtWgt=          12          12          14          12          14           1           1           1           1           1
 AtmWgt=  12.0000000  12.0000000  14.0030740  12.0000000  14.0030740   1.0078250   1.0078250   1.0078250   1.0078250   1.0078250
 NucSpn=           0           0           2           0           2           1           1           1           1           1
 AtZEff=  -0.0000000  -0.0000000  -0.0000000  -0.0000000  -0.0000000  -0.0000000  -0.0000000  -0.0000000  -0.0000000  -0.0000000
 NQMom=    0.0000000   0.0000000   2.0440000   0.0000000   2.0440000   0.0000000   0.0000000   0.0000000   0.0000000   0.0000000
 NMagM=    0.0000000   0.0000000   0.4037610   0.0000000   0.4037610   2.7928460   2.7928460   2.7928460   2.7928460   2.7928460
 AtZNuc=   6.0000000   6.0000000   7.0000000   6.0000000   7.0000000   1.0000000   1.0000000   1.0000000   1.0000000   1.0000000
 Leave Link  101 at Tue Sep 30 16:58:50 2025, MaxMem=  4294967296 cpu:               5.1 elap:               0.3
 (Enter /software/sse/easybuild/prefix/software/Gaussian/16.C.01-avx2-nsc1/g16/l103.exe)

 GradGradGradGradGradGradGradGradGradGradGradGradGradGradGradGradGradGrad
 Berny optimization.
 Initialization pass.
                           ----------------------------
                           !    Initial Parameters    !
                           ! (Angstroms and Degrees)  !
 --------------------------                            --------------------------
 ! Name  Definition              Value          Derivative Info.                !
 --------------------------------------------------------------------------------
 ! R1    R(1,2)                  1.3355         estimate D2E/DX2                !
 ! R2    R(1,5)                  1.3799         estimate D2E/DX2                !
 ! R3    R(1,6)                  1.0657         estimate D2E/DX2                !
 ! R4    R(2,3)                  1.3799         estimate D2E/DX2                !
 ! R5    R(2,7)                  1.0657         estimate D2E/DX2                !
 ! R6    R(3,4)                  1.309          estimate D2E/DX2                !
 ! R7    R(3,8)                  0.9953         estimate D2E/DX2                !
 ! R8    R(4,5)                  1.309          estimate D2E/DX2                !
 ! R9    R(4,9)                  1.0683         estimate D2E/DX2                !
 ! R10   R(5,10)                 0.9953         estimate D2E/DX2                !
 ! A1    A(2,1,5)              106.5097         estimate D2E/DX2                !
 ! A2    A(2,1,6)              131.1471         estimate D2E/DX2                !
 ! A3    A(5,1,6)              122.3432         estimate D2E/DX2                !
 ! A4    A(1,2,3)              106.5097         estimate D2E/DX2                !
 ! A5    A(1,2,7)              131.1471         estimate D2E/DX2                !
 ! A6    A(3,2,7)              122.3432         estimate D2E/DX2                !
 ! A7    A(2,3,4)              109.4206         estimate D2E/DX2                !
 ! A8    A(2,3,8)              125.9124         estimate D2E/DX2                !
 ! A9    A(4,3,8)              124.667          estimate D2E/DX2                !
 ! A10   A(3,4,5)              108.1395         estimate D2E/DX2                !
 ! A11   A(3,4,9)              125.9302         estimate D2E/DX2                !
 ! A12   A(5,4,9)              125.9302         estimate D2E/DX2                !
 ! A13   A(1,5,4)              109.4206         estimate D2E/DX2                !
 ! A14   A(1,5,10)             125.9124         estimate D2E/DX2                !
 ! A15   A(4,5,10)             124.667          estimate D2E/DX2                !
 ! D1    D(5,1,2,3)              0.0            estimate D2E/DX2                !
 ! D2    D(5,1,2,7)            180.0            estimate D2E/DX2                !
 ! D3    D(6,1,2,3)            180.0            estimate D2E/DX2                !
 ! D4    D(6,1,2,7)              0.0            estimate D2E/DX2                !
 ! D5    D(2,1,5,4)              0.0            estimate D2E/DX2                !
 ! D6    D(2,1,5,10)           180.0            estimate D2E/DX2                !
 ! D7    D(6,1,5,4)            180.0            estimate D2E/DX2                !
 ! D8    D(6,1,5,10)             0.0            estimate D2E/DX2                !
 ! D9    D(1,2,3,4)              0.0            estimate D2E/DX2                !
 ! D10   D(1,2,3,8)            180.0            estimate D2E/DX2                !
 ! D11   D(7,2,3,4)            180.0            estimate D2E/DX2                !
 ! D12   D(7,2,3,8)              0.0            estimate D2E/DX2                !
 ! D13   D(2,3,4,5)              0.0            estimate D2E/DX2                !
 ! D14   D(2,3,4,9)            180.0            estimate D2E/DX2                !
 ! D15   D(8,3,4,5)            180.0            estimate D2E/DX2                !
 ! D16   D(8,3,4,9)              0.0            estimate D2E/DX2                !
 ! D17   D(3,4,5,1)              0.0            estimate D2E/DX2                !
 ! D18   D(3,4,5,10)           180.0            estimate D2E/DX2                !
 ! D19   D(9,4,5,1)            180.0            estimate D2E/DX2                !
 ! D20   D(9,4,5,10)             0.0            estimate D2E/DX2                !
 --------------------------------------------------------------------------------
 Trust Radius=3.00D-01 FncErr=1.00D-07 GrdErr=1.00D-07 EigMax=2.50D+02 EigMin=1.00D-04
 Number of steps in this run=     55 maximum allowed number of steps=    100.
 GradGradGradGradGradGradGradGradGradGradGradGradGradGradGradGradGradGrad

 Leave Link  103 at Tue Sep 30 16:58:50 2025, MaxMem=  4294967296 cpu:               0.2 elap:               0.0
 (Enter /software/sse/easybuild/prefix/software/Gaussian/16.C.01-avx2-nsc1/g16/l202.exe)
                          Input orientation:                          
 ---------------------------------------------------------------------
 Center     Atomic      Atomic             Coordinates (Angstroms)
 Number     Number       Type             X           Y           Z
 ---------------------------------------------------------------------
      1          6           0        0.000000   -0.667770    0.971100
      2          6           0        0.000000    0.667770    0.971100
      3          7           0        0.000000    1.059910   -0.351920
      4          6           0        0.000000    0.000000   -1.120020
      5          7           0        0.000000   -1.059910   -0.351920
      6          1           0        0.000000   -1.368990    1.773590
      7          1           0        0.000000    1.368990    1.773590
      8          1           0        0.000000    1.998670   -0.682560
      9          1           0        0.000000    0.000000   -2.188320
     10          1           0        0.000000   -1.998670   -0.682560
 ---------------------------------------------------------------------
                    Distance matrix (angstroms):
                    1          2          3          4          5
     1  C    0.000000
     2  C    1.335540   0.000000
     3  N    2.176065   1.379911   0.000000
     4  C    2.195154   2.195154   1.308964   0.000000
     5  N    1.379911   2.176065   2.119820   1.308964   0.000000
     6  H    1.065692   2.189151   3.227592   3.201111   2.147865
     7  H    2.189151   1.065692   2.147865   3.201111   3.227592
     8  H    3.137594   2.122707   0.995285   2.045985   3.076400
     9  H    3.229218   3.229218   2.120324   1.068300   2.120324
    10  H    2.122707   3.137594   3.076400   2.045985   0.995285
                    6          7          8          9         10
     6  H    0.000000
     7  H    2.737980   0.000000
     8  H    4.168190   2.535581   0.000000
     9  H    4.191761   4.191761   2.502398   0.000000
    10  H    2.535581   4.168190   3.997340   2.502398   0.000000
 Stoichiometry    C3H5N2(1+)
 Framework group  C2V[C2(CH),SGV(C2H4N2)]
 Deg. of freedom     9
 Full point group                 C2V     NOp   4
 Largest Abelian subgroup         C2V     NOp   4
 Largest concise Abelian subgroup C2      NOp   2
                         Standard orientation:                         
 ---------------------------------------------------------------------
 Center     Atomic      Atomic             Coordinates (Angstroms)
 Number     Number       Type             X           Y           Z
 ---------------------------------------------------------------------
      1          6           0       -0.000000    0.667770   -0.971102
      2          6           0       -0.000000   -0.667770   -0.971102
      3          7           0        0.000000   -1.059910    0.351918
      4          6           0        0.000000    0.000000    1.120018
      5          7           0        0.000000    1.059910    0.351918
      6          1           0       -0.000000    1.368990   -1.773592
      7          1           0       -0.000000   -1.368990   -1.773592
      8          1           0        0.000000   -1.998670    0.682558
      9          1           0        0.000000    0.000000    2.188318
     10          1           0        0.000000    1.998670    0.682558
 ---------------------------------------------------------------------
 Rotational constants (GHZ):           9.4888261           9.3599374           4.7119705
 Leave Link  202 at Tue Sep 30 16:58:50 2025, MaxMem=  4294967296 cpu:               0.1 elap:               0.0
 (Enter /software/sse/easybuild/prefix/software/Gaussian/16.C.01-avx2-nsc1/g16/l301.exe)
 Standard basis: Aug-CC-pVTZ (5D, 7F)
 Ernie: Thresh=  0.10000D-02 Tol=  0.10000D-05 Strict=F.
 Ernie:  15 primitive shells out of 205 were deleted.
 There are   147 symmetry adapted cartesian basis functions of A1  symmetry.
 There are    57 symmetry adapted cartesian basis functions of A2  symmetry.
 There are    68 symmetry adapted cartesian basis functions of B1  symmetry.
 There are   128 symmetry adapted cartesian basis functions of B2  symmetry.
 There are   122 symmetry adapted basis functions of A1  symmetry.
 There are    53 symmetry adapted basis functions of A2  symmetry.
 There are    62 symmetry adapted basis functions of B1  symmetry.
 There are   108 symmetry adapted basis functions of B2  symmetry.
   345 basis functions,   495 primitive gaussians,   400 cartesian basis functions
    18 alpha electrons       18 beta electrons
       nuclear repulsion energy       175.1153557190 Hartrees.
 IExCor=    0 DFT=F Ex=HF Corr=None ExCW=0 ScaHFX=  1.000000
 ScaDFX=  1.000000  1.000000  1.000000  1.000000 ScalE2=  1.000000  1.000000
 IRadAn=      5 IRanWt=     -1 IRanGd=            0 ICorTp=0 IEmpDi=  4
 NAtoms=   10 NActive=   10 NUniq=    6 SFac= 2.78D+00 NAtFMM=   60 NAOKFM=F Big=F
 Integral buffers will be    131072 words long.
 Raffenetti 1 integral format.
 Two-electron integral symmetry is turned on.
 Leave Link  301 at Tue Sep 30 16:58:51 2025, MaxMem=  4294967296 cpu:               0.8 elap:               0.1
 (Enter /software/sse/easybuild/prefix/software/Gaussian/16.C.01-avx2-nsc1/g16/l302.exe)
 NPDir=0 NMtPBC=     1 NCelOv=     1 NCel=       1 NClECP=     1 NCelD=      1
         NCelK=      1 NCelE2=     1 NClLst=     1 CellRange=     0.0.
 One-electron integrals computed using PRISM.
 One-electron integral symmetry used in STVInt
 NBasis=   345 RedAO= T EigKep=  4.39D-06  NBF=   122    53    62   108
 NBsUse=   345 1.00D-06 EigRej= -1.00D+00 NBFU=   122    53    62   108
 Leave Link  302 at Tue Sep 30 16:58:51 2025, MaxMem=  4294967296 cpu:               2.8 elap:               0.2
 (Enter /software/sse/easybuild/prefix/software/Gaussian/16.C.01-avx2-nsc1/g16/l303.exe)
 DipDrv:  MaxL=1.
 Leave Link  303 at Tue Sep 30 16:58:52 2025, MaxMem=  4294967296 cpu:               0.6 elap:               0.1
 (Enter /software/sse/easybuild/prefix/software/Gaussian/16.C.01-avx2-nsc1/g16/l401.exe)
 ExpMin= 2.53D-02 ExpMax= 1.14D+04 ExpMxC= 3.89D+02 IAcc=3 IRadAn=         5 AccDes= 0.00D+00
 Harris functional with IExCor=  205 and IRadAn=       5 diagonalized for initial guess.
 HarFok:  IExCor=  205 AccDes= 0.00D+00 IRadAn=         5 IDoV= 1 UseB2=F ITyADJ=14
 ICtDFT=  3500011 ScaDFX=  1.000000  1.000000  1.000000  1.000000
 FoFCou: FMM=F IPFlag=           0 FMFlag=      100000 FMFlg1=           0
         NFxFlg=           0 DoJE=T BraDBF=F KetDBF=T FulRan=T
         wScrn=  0.000000 ICntrl=       500 IOpCl=  0 I1Cent=   200000004 NGrid=           0
         NMat0=    1 NMatS0=      1 NMatT0=    0 NMatD0=    1 NMtDS0=    0 NMtDT0=    0
 Petite list used in FoFCou.
 Harris En= -225.565089787386    
 JPrj=0 DoOrth=F DoCkMO=F.
 Initial guess orbital symmetries:
       Occupied  (B2) (A1) (A1) (B2) (A1) (A1) (B2) (A1) (A1) (B2)
                 (A1) (B2) (A1) (B2) (B1) (A1) (A2) (B1)
       Virtual   (B1) (A2) (A1) (B2) (A1) (A1) (B2) (A1) (B1) (A1)
                 (B1) (A2) (A1) (B2) (B2) (A1) (B2) (A1) (B2) (A1)
                 (A1) (B2) (A2) (B1) (A1) (A1) (B2) (B1) (B2) (B2)
                 (A1) (A1) (A1) (B1) (B2) (A1) (A2) (B1) (B2) (B2)
                 (B2) (A2) (B1) (A1) (A2) (A1) (A1) (B2) (A1) (A1)
                 (B1) (A2) (B2) (B2) (A1) (B1) (B1) (B2) (A1) (B2)
                 (A1) (B2) (A1) (A1) (A2) (A1) (B2) (B2) (B1) (B2)
                 (B2) (A2) (B1) (A1) (A1) (A2) (B1) (B2) (A2) (B2)
                 (A1) (A1) (A1) (B2) (A1) (B1) (A1) (B2) (B1) (A2)
                 (B2) (A1) (B1) (B1) (B2) (A1) (A1) (A2) (A1) (B2)
                 (A2) (B1) (A1) (B2) (A2) (A1) (B2) (A1) (B1) (A2)
                 (B2) (A1) (B1) (B2) (B1) (A2) (A1) (B2) (A1) (B2)
                 (A1) (B1) (B2) (B2) (A2) (A1) (B2) (B1) (A1) (A2)
                 (A1) (B1) (A2) (B2) (B2) (A1) (A1) (A2) (B1) (B2)
                 (B1) (A1) (B2) (A1) (A2) (A1) (B2) (B1) (A1) (B2)
                 (B1) (A1) (A2) (A2) (B1) (A1) (B2) (A1) (A1) (B2)
                 (A2) (B2) (B2) (B1) (A1) (A1) (B2) (A1) (B1) (A2)
                 (B2) (A2) (B1) (A1) (B2) (B2) (A2) (B2) (A1) (A1)
                 (B2) (B1) (A1) (B2) (A2) (B1) (A1) (B1) (B2) (B2)
                 (A1) (A1) (A2) (B2) (B2) (B1) (B2) (A1) (A2) (A1)
                 (B1) (B2) (B2) (A1) (B1) (A2) (A1) (A1) (A1) (B1)
                 (B1) (B2) (A1) (B1) (B2) (A2) (B1) (A1) (A2) (B2)
                 (A1) (A2) (B1) (B2) (A1) (A1) (B1) (A1) (A2) (A2)
                 (B2) (A1) (B2) (A1) (B1) (A1) (A2) (B2) (A1) (B2)
                 (A2) (B2) (B1) (A1) (A1) (B2) (A2) (A1) (B2) (A2)
                 (B1) (B1) (B2) (A2) (A1) (B1) (B2) (B2) (A2) (A1)
                 (B2) (A1) (B2) (A1) (B1) (A1) (A1) (A2) (B1) (B1)
                 (B2) (B2) (A1) (A2) (A1) (A1) (B2) (B2) (B1) (B2)
                 (A2) (B1) (A1) (B1) (B2) (A2) (B1) (A1) (B2) (A2)
                 (B2) (A2) (B1) (A1) (B1) (B2) (A1) (B2) (A2) (A1)
                 (A1) (A1) (A2) (B2) (A2) (B2) (A1) (B1) (A1) (B2)
                 (B2) (B2) (A1) (A1) (B2) (B2) (A1) (A1) (B2) (B2)
                 (B2) (A1) (A1) (B2) (A1) (B2) (A1)
 The electronic state of the initial guess is 1-A1.
 Leave Link  401 at Tue Sep 30 16:58:53 2025, MaxMem=  4294967296 cpu:              10.8 elap:               0.7
 (Enter /software/sse/easybuild/prefix/software/Gaussian/16.C.01-avx2-nsc1/g16/l502.exe)
 Keep R1 ints in memory in symmetry-blocked form, NReq=2232411191.
 FoFCou: FMM=F IPFlag=           0 FMFlag=           0 FMFlg1=           0
         NFxFlg=           0 DoJE=F BraDBF=F KetDBF=F FulRan=T
         wScrn=  0.000000 ICntrl=       600 IOpCl=  0 I1Cent=           0 NGrid=           0
         NMat0=    1 NMatS0=  59685 NMatT0=    0 NMatD0=    1 NMtDS0=    0 NMtDT0=    0
 Petite list used in FoFCou.
 Closed shell SCF:
 Using DIIS extrapolation, IDIIS=  1040.
 NGot=  4294967296 LenX=  3843407806 LenY=  3843247365
 Requested convergence on RMS density matrix=1.00D-08 within 128 cycles.
 Requested convergence on MAX density matrix=1.00D-06.
 Requested convergence on             energy=1.00D-06.
 No special actions if energy rises.

 Cycle   1  Pass 1  IDiag  1:
 E= -225.126106695558    
 DIIS: error= 2.84D-02 at cycle   1 NSaved=   1.
 NSaved= 1 IEnMin= 1 EnMin= -225.126106695558     IErMin= 1 ErrMin= 2.84D-02
 ErrMax= 2.84D-02  0.00D+00 EMaxC= 1.00D-01 BMatC= 4.15D-01 BMatP= 4.15D-01
 IDIUse=3 WtCom= 7.16D-01 WtEn= 2.84D-01
 Coeff-Com:  0.100D+01
 Coeff-En:   0.100D+01
 Coeff:      0.100D+01
 Gap=     0.409 Goal=   None    Shift=    0.000
 GapD=    0.409 DampG=2.000 DampE=0.500 DampFc=1.0000 IDamp=-1.
 RMSDP=1.79D-03 MaxDP=1.25D-01              OVMax= 1.07D-01

 Cycle   2  Pass 1  IDiag  1:
 E= -225.265039641245     Delta-E=       -0.138932945687 Rises=F Damp=F
 DIIS: error= 1.09D-02 at cycle   2 NSaved=   2.
 NSaved= 2 IEnMin= 2 EnMin= -225.265039641245     IErMin= 2 ErrMin= 1.09D-02
 ErrMax= 1.09D-02  0.00D+00 EMaxC= 1.00D-01 BMatC= 1.90D-02 BMatP= 4.15D-01
 IDIUse=3 WtCom= 8.91D-01 WtEn= 1.09D-01
 Coeff-Com:  0.487D-01 0.951D+00
 Coeff-En:   0.000D+00 0.100D+01
 Coeff:      0.434D-01 0.957D+00
 Gap=     0.495 Goal=   None    Shift=    0.000
 RMSDP=4.67D-04 MaxDP=2.37D-02 DE=-1.39D-01 OVMax= 5.69D-02

 Cycle   3  Pass 1  IDiag  1:
 E= -225.278339938479     Delta-E=       -0.013300297234 Rises=F Damp=F
 DIIS: error= 4.45D-03 at cycle   3 NSaved=   3.
 NSaved= 3 IEnMin= 3 EnMin= -225.278339938479     IErMin= 3 ErrMin= 4.45D-03
 ErrMax= 4.45D-03  0.00D+00 EMaxC= 1.00D-01 BMatC= 3.69D-03 BMatP= 1.90D-02
 IDIUse=3 WtCom= 9.56D-01 WtEn= 4.45D-02
 Coeff-Com: -0.248D-01 0.282D+00 0.743D+00
 Coeff-En:   0.000D+00 0.000D+00 0.100D+01
 Coeff:     -0.237D-01 0.269D+00 0.755D+00
 Gap=     0.458 Goal=   None    Shift=    0.000
 RMSDP=1.28D-04 MaxDP=3.33D-03 DE=-1.33D-02 OVMax= 1.45D-02

 Cycle   4  Pass 1  IDiag  1:
 E= -225.281577408178     Delta-E=       -0.003237469699 Rises=F Damp=F
 DIIS: error= 1.28D-03 at cycle   4 NSaved=   4.
 NSaved= 4 IEnMin= 4 EnMin= -225.281577408178     IErMin= 4 ErrMin= 1.28D-03
 ErrMax= 1.28D-03  0.00D+00 EMaxC= 1.00D-01 BMatC= 5.34D-05 BMatP= 3.69D-03
 IDIUse=3 WtCom= 9.87D-01 WtEn= 1.28D-02
 Coeff-Com: -0.295D-02 0.473D-02 0.609D-01 0.937D+00
 Coeff-En:   0.000D+00 0.000D+00 0.000D+00 0.100D+01
 Coeff:     -0.291D-02 0.467D-02 0.601D-01 0.938D+00
 Gap=     0.457 Goal=   None    Shift=    0.000
 RMSDP=2.63D-05 MaxDP=1.69D-03 DE=-3.24D-03 OVMax= 6.79D-03

 Cycle   5  Pass 1  IDiag  1:
 E= -225.281697343782     Delta-E=       -0.000119935605 Rises=F Damp=F
 DIIS: error= 5.71D-04 at cycle   5 NSaved=   5.
 NSaved= 5 IEnMin= 5 EnMin= -225.281697343782     IErMin= 5 ErrMin= 5.71D-04
 ErrMax= 5.71D-04  0.00D+00 EMaxC= 1.00D-01 BMatC= 1.63D-05 BMatP= 5.34D-05
 IDIUse=3 WtCom= 9.94D-01 WtEn= 5.71D-03
 Coeff-Com:  0.207D-02-0.282D-01-0.762D-01 0.136D+00 0.966D+00
 Coeff-En:   0.000D+00 0.000D+00 0.000D+00 0.000D+00 0.100D+01
 Coeff:      0.205D-02-0.281D-01-0.758D-01 0.135D+00 0.967D+00
 Gap=     0.457 Goal=   None    Shift=    0.000
 RMSDP=1.45D-05 MaxDP=6.14D-04 DE=-1.20D-04 OVMax= 2.61D-03

 Cycle   6  Pass 1  IDiag  1:
 E= -225.281735101657     Delta-E=       -0.000037757875 Rises=F Damp=F
 DIIS: error= 2.93D-04 at cycle   6 NSaved=   6.
 NSaved= 6 IEnMin= 6 EnMin= -225.281735101657     IErMin= 6 ErrMin= 2.93D-04
 ErrMax= 2.93D-04  0.00D+00 EMaxC= 1.00D-01 BMatC= 2.15D-06 BMatP= 1.63D-05
 IDIUse=3 WtCom= 9.97D-01 WtEn= 2.93D-03
 Coeff-Com:  0.563D-03-0.162D-02-0.140D-01-0.126D+00-0.140D+00 0.128D+01
 Coeff-En:   0.000D+00 0.000D+00 0.000D+00 0.000D+00 0.000D+00 0.100D+01
 Coeff:      0.562D-03-0.162D-02-0.140D-01-0.126D+00-0.139D+00 0.128D+01
 Gap=     0.457 Goal=   None    Shift=    0.000
 RMSDP=9.27D-06 MaxDP=5.61D-04 DE=-3.78D-05 OVMax= 2.65D-03

 Cycle   7  Pass 1  IDiag  1:
 E= -225.281745984030     Delta-E=       -0.000010882373 Rises=F Damp=F
 DIIS: error= 6.81D-05 at cycle   7 NSaved=   7.
 NSaved= 7 IEnMin= 7 EnMin= -225.281745984030     IErMin= 7 ErrMin= 6.81D-05
 ErrMax= 6.81D-05  0.00D+00 EMaxC= 1.00D-01 BMatC= 3.32D-07 BMatP= 2.15D-06
 IDIUse=1 WtCom= 1.00D+00 WtEn= 0.00D+00
 Coeff-Com: -0.447D-03 0.481D-02 0.146D-01 0.436D-01-0.164D+00-0.351D+00
 Coeff-Com:  0.145D+01
 Coeff:     -0.447D-03 0.481D-02 0.146D-01 0.436D-01-0.164D+00-0.351D+00
 Coeff:      0.145D+01
 Gap=     0.457 Goal=   None    Shift=    0.000
 RMSDP=3.87D-06 MaxDP=2.08D-04 DE=-1.09D-05 OVMax= 1.05D-03

 Cycle   8  Pass 1  IDiag  1:
 E= -225.281747278452     Delta-E=       -0.000001294422 Rises=F Damp=F
 DIIS: error= 6.03D-06 at cycle   8 NSaved=   8.
 NSaved= 8 IEnMin= 8 EnMin= -225.281747278452     IErMin= 8 ErrMin= 6.03D-06
 ErrMax= 6.03D-06  0.00D+00 EMaxC= 1.00D-01 BMatC= 7.91D-09 BMatP= 3.32D-07
 IDIUse=1 WtCom= 1.00D+00 WtEn= 0.00D+00
 Coeff-Com: -0.765D-04 0.658D-03 0.191D-02 0.866D-02-0.165D-01-0.694D-01
 Coeff-Com:  0.119D+00 0.955D+00
 Coeff:     -0.765D-04 0.658D-03 0.191D-02 0.866D-02-0.165D-01-0.694D-01
 Coeff:      0.119D+00 0.955D+00
 Gap=     0.457 Goal=   None    Shift=    0.000
 RMSDP=3.65D-07 MaxDP=1.84D-05 DE=-1.29D-06 OVMax= 8.82D-05

 Cycle   9  Pass 1  IDiag  1:
 E= -225.281747291679     Delta-E=       -0.000000013227 Rises=F Damp=F
 DIIS: error= 2.34D-06 at cycle   9 NSaved=   9.
 NSaved= 9 IEnMin= 9 EnMin= -225.281747291679     IErMin= 9 ErrMin= 2.34D-06
 ErrMax= 2.34D-06  0.00D+00 EMaxC= 1.00D-01 BMatC= 9.73D-10 BMatP= 7.91D-09
 IDIUse=1 WtCom= 1.00D+00 WtEn= 0.00D+00
 Coeff-Com:  0.287D-04-0.351D-03-0.113D-02-0.217D-02 0.136D-01 0.254D-01
 Coeff-Com: -0.130D+00 0.210D+00 0.884D+00
 Coeff:      0.287D-04-0.351D-03-0.113D-02-0.217D-02 0.136D-01 0.254D-01
 Coeff:     -0.130D+00 0.210D+00 0.884D+00
 Gap=     0.457 Goal=   None    Shift=    0.000
 RMSDP=9.35D-08 MaxDP=4.93D-06 DE=-1.32D-08 OVMax= 9.92D-06

 Cycle  10  Pass 1  IDiag  1:
 E= -225.281747292859     Delta-E=       -0.000000001180 Rises=F Damp=F
 DIIS: error= 4.95D-07 at cycle  10 NSaved=  10.
 NSaved=10 IEnMin=10 EnMin= -225.281747292859     IErMin=10 ErrMin= 4.95D-07
 ErrMax= 4.95D-07  0.00D+00 EMaxC= 1.00D-01 BMatC= 2.80D-11 BMatP= 9.73D-10
 IDIUse=1 WtCom= 1.00D+00 WtEn= 0.00D+00
 Coeff-Com: -0.913D-06 0.244D-04 0.101D-03-0.557D-04-0.197D-02-0.290D-03
 Coeff-Com:  0.156D-01-0.865D-01-0.153D+00 0.123D+01
 Coeff:     -0.913D-06 0.244D-04 0.101D-03-0.557D-04-0.197D-02-0.290D-03
 Coeff:      0.156D-01-0.865D-01-0.153D+00 0.123D+01
 Gap=     0.457 Goal=   None    Shift=    0.000
 RMSDP=2.50D-08 MaxDP=9.45D-07 DE=-1.18D-09 OVMax= 3.15D-06

 Cycle  11  Pass 1  IDiag  1:
 E= -225.281747292918     Delta-E=       -0.000000000059 Rises=F Damp=F
 DIIS: error= 1.11D-07 at cycle  11 NSaved=  11.
 NSaved=11 IEnMin=11 EnMin= -225.281747292918     IErMin=11 ErrMin= 1.11D-07
 ErrMax= 1.11D-07  0.00D+00 EMaxC= 1.00D-01 BMatC= 8.09D-13 BMatP= 2.80D-11
 IDIUse=1 WtCom= 1.00D+00 WtEn= 0.00D+00
 Coeff-Com: -0.860D-06 0.100D-04 0.308D-04 0.114D-03-0.304D-03-0.979D-03
 Coeff-Com:  0.365D-02 0.745D-03-0.167D-01-0.129D+00 0.114D+01
 Coeff:     -0.860D-06 0.100D-04 0.308D-04 0.114D-03-0.304D-03-0.979D-03
 Coeff:      0.365D-02 0.745D-03-0.167D-01-0.129D+00 0.114D+01
 Gap=     0.457 Goal=   None    Shift=    0.000
 RMSDP=4.32D-09 MaxDP=1.52D-07 DE=-5.88D-11 OVMax= 8.15D-07

 SCF Done:  E(RHF) =  -225.281747293     A.U. after   11 cycles
            NFock= 11  Conv=0.43D-08     -V/T= 2.0004
 KE= 2.251862240816D+02 PE=-8.677453048110D+02 EE= 2.421619777175D+02
 Leave Link  502 at Tue Sep 30 16:59:03 2025, MaxMem=  4294967296 cpu:             137.2 elap:              10.2
 (Enter /software/sse/easybuild/prefix/software/Gaussian/16.C.01-avx2-nsc1/g16/l601.exe)
 Copying SCF densities to generalized density rwf, IOpCl= 0 IROHF=0.
 SCF density gives NOpUse=  4 NOpAll=  4.

 **********************************************************************

            Population analysis using the SCF Density.

 **********************************************************************

 Orbital symmetries:
 BldTbl:  Degeneracy threshold= 1.00D-02
       Occupied  (B2) (A1) (A1) (A1) (B2) (A1) (B2) (A1) (A1) (B2)
                 (A1) (B2) (B1) (A1) (B2) (A1) (A2) (B1)
       Virtual   (A1) (B2) (B1) (A1) (A1) (B2) (B1) (A1) (A2) (B1)
                 (B2) (A1) (B2) (A1) (A2) (A1) (B2) (B2) (A1) (A2)
                 (A1) (B1) (A1) (B2) (A1) (B2) (B1) (A1) (B2) (A1)
                 (A1) (B2) (B2) (B1) (A1) (B1) (A2) (B2) (A1) (A2)
                 (B2) (A1) (A2) (B1) (A1) (A1) (B2) (B2) (A2) (A1)
                 (A1) (B2) (B1) (A1) (B1) (A1) (B2) (B1) (B2) (A1)
                 (B2) (A2) (A1) (A1) (B2) (A1) (B2) (B2) (B1) (B2)
                 (B2) (A2) (A1) (A1) (B1) (A2) (B2) (A1) (B1) (A2)
                 (B2) (A1) (B2) (A1) (A1) (A1) (B1) (B2) (A2) (B1)
                 (A1) (B2) (B1) (B1) (A1) (B2) (A1) (A2) (B2) (A2)
                 (A1) (B1) (A1) (B2) (A2) (A1) (B2) (A2) (B1) (B2)
                 (A1) (A1) (B1) (A2) (B2) (B1) (B2) (A1) (A1) (B2)
                 (A1) (B2) (B1) (B2) (A2) (A1) (B2) (B1) (A1) (A2)
                 (B2) (A1) (A2) (B1) (A1) (B2) (B1) (A2) (B2) (A1)
                 (A1) (B1) (B2) (A1) (A1) (A2) (B2) (A1) (B1) (B2)
                 (B1) (A1) (A2) (A1) (B2) (B1) (A2) (A1) (B2) (A2)
                 (A1) (B2) (B2) (B1) (A1) (B2) (A1) (A1) (B1) (A2)
                 (B2) (B2) (A2) (B1) (A1) (B2) (A2) (A1) (B2) (B2)
                 (A1) (B1) (B2) (A2) (A1) (B1) (A1) (B1) (B2) (B2)
                 (A1) (A2) (A1) (B2) (B2) (A2) (A1) (B2) (B1) (A1)
                 (B2) (B1) (B2) (A1) (A2) (B1) (A1) (A1) (B1) (A1)
                 (B2) (A1) (B1) (B1) (A2) (B2) (B1) (A1) (A2) (B2)
                 (A1) (B1) (A2) (A1) (B2) (B1) (A1) (A1) (A2) (A2)
                 (B2) (A1) (B2) (A1) (B1) (A1) (A2) (B2) (A1) (A2)
                 (B2) (B1) (A1) (B2) (A1) (B2) (A2) (B2) (A1) (A2)
                 (B1) (B1) (A2) (B2) (B1) (A1) (B2) (A1) (B2) (A2)
                 (B2) (A1) (B2) (B1) (A1) (A1) (B1) (B1) (A1) (A2)
                 (B2) (B2) (A1) (A2) (A1) (B2) (A1) (B2) (B1) (A2)
                 (B2) (A1) (B1) (B2) (B1) (A2) (A1) (B2) (B1) (A2)
                 (B2) (B2) (A1) (A2) (B1) (B1) (B2) (A1) (A2) (A1)
                 (A1) (A2) (A1) (B2) (A2) (B2) (A1) (B1) (A1) (B2)
                 (B2) (B2) (A1) (A1) (B2) (A1) (B2) (A1) (B2) (B2)
                 (B2) (A1) (A1) (B2) (A1) (B2) (A1)
 The electronic state is 1-A1.
 Alpha  occ. eigenvalues --  -15.84705 -15.84701 -11.54851 -11.47145 -11.46974
 Alpha  occ. eigenvalues --   -1.61081  -1.44104  -1.25913  -1.10870  -1.05228
 Alpha  occ. eigenvalues --   -1.00308  -0.91018  -0.85320  -0.83722  -0.81881
 Alpha  occ. eigenvalues --   -0.81573  -0.66863  -0.55499
 Alpha virt. eigenvalues --   -0.09766  -0.08102  -0.07222  -0.07112  -0.05223
 Alpha virt. eigenvalues --   -0.05119  -0.04355  -0.03484  -0.03263  -0.01086
 Alpha virt. eigenvalues --   -0.00943  -0.00245   0.00093   0.00149   0.00223
 Alpha virt. eigenvalues --    0.01394   0.02557   0.03605   0.03814   0.05038
 Alpha virt. eigenvalues --    0.05186   0.05499   0.07603   0.09147   0.09312
 Alpha virt. eigenvalues --    0.09700   0.11070   0.13042   0.13783   0.15832
 Alpha virt. eigenvalues --    0.16952   0.16954   0.17653   0.18164   0.18524
 Alpha virt. eigenvalues --    0.18767   0.19091   0.19620   0.21354   0.22088
 Alpha virt. eigenvalues --    0.23156   0.23577   0.25109   0.25214   0.25357
 Alpha virt. eigenvalues --    0.26526   0.27061   0.28730   0.30056   0.30913
 Alpha virt. eigenvalues --    0.31872   0.32439   0.32856   0.34013   0.34245
 Alpha virt. eigenvalues --    0.34471   0.35062   0.35673   0.36036   0.36940
 Alpha virt. eigenvalues --    0.38573   0.41542   0.43300   0.43576   0.45255
 Alpha virt. eigenvalues --    0.45276   0.46601   0.48882   0.49225   0.52554
 Alpha virt. eigenvalues --    0.53290   0.53669   0.56072   0.56429   0.56452
 Alpha virt. eigenvalues --    0.56820   0.61323   0.61640   0.62130   0.64108
 Alpha virt. eigenvalues --    0.65729   0.68403   0.69475   0.69520   0.72153
 Alpha virt. eigenvalues --    0.73443   0.74382   0.74386   0.75957   0.76001
 Alpha virt. eigenvalues --    0.78279   0.78441   0.78972   0.80682   0.80716
 Alpha virt. eigenvalues --    0.81144   0.83366   0.84016   0.86815   0.87178
 Alpha virt. eigenvalues --    0.87305   0.88590   0.88930   0.89968   0.90738
 Alpha virt. eigenvalues --    0.93975   0.94782   0.97127   0.97172   0.98393
 Alpha virt. eigenvalues --    0.98413   0.99804   1.00899   1.02136   1.02728
 Alpha virt. eigenvalues --    1.04098   1.04381   1.06206   1.07473   1.07536
 Alpha virt. eigenvalues --    1.09569   1.11300   1.14394   1.16750   1.18320
 Alpha virt. eigenvalues --    1.18799   1.19682   1.22380   1.23786   1.24328
 Alpha virt. eigenvalues --    1.25056   1.26213   1.27240   1.28636   1.30769
 Alpha virt. eigenvalues --    1.32250   1.34622   1.34693   1.34877   1.35381
 Alpha virt. eigenvalues --    1.36856   1.36942   1.43150   1.45490   1.48353
 Alpha virt. eigenvalues --    1.49575   1.49631   1.52738   1.56023   1.57610
 Alpha virt. eigenvalues --    1.60668   1.63196   1.63897   1.68931   1.69389
 Alpha virt. eigenvalues --    1.69540   1.71198   1.76812   1.78670   1.81107
 Alpha virt. eigenvalues --    1.81177   1.82374   1.85625   1.87846   1.88271
 Alpha virt. eigenvalues --    1.92765   1.93746   1.96606   1.98206   1.98706
 Alpha virt. eigenvalues --    1.99353   2.05504   2.05698   2.06617   2.08209
 Alpha virt. eigenvalues --    2.09850   2.13397   2.17503   2.17805   2.21278
 Alpha virt. eigenvalues --    2.21554   2.26294   2.28773   2.30457   2.30626
 Alpha virt. eigenvalues --    2.33099   2.36201   2.37102   2.37696   2.44002
 Alpha virt. eigenvalues --    2.48398   2.52153   2.53888   2.56591   2.64198
 Alpha virt. eigenvalues --    2.70944   2.71145   2.71776   2.81737   2.83450
 Alpha virt. eigenvalues --    2.87471   2.88795   2.92498   2.96283   3.09529
 Alpha virt. eigenvalues --    3.10979   3.12845   3.19175   3.23973   3.24856
 Alpha virt. eigenvalues --    3.27936   3.29076   3.31168   3.35690   3.39859
 Alpha virt. eigenvalues --    3.40905   3.47187   3.48899   3.49693   3.54719
 Alpha virt. eigenvalues --    3.54800   3.55752   3.57747   3.61659   3.63054
 Alpha virt. eigenvalues --    3.63736   3.63935   3.66142   3.69447   3.75597
 Alpha virt. eigenvalues --    3.76361   3.83095   3.83694   3.86696   3.93064
 Alpha virt. eigenvalues --    3.94851   3.95961   3.96559   3.97054   3.98266
 Alpha virt. eigenvalues --    3.99024   4.04758   4.05733   4.05772   4.07545
 Alpha virt. eigenvalues --    4.11142   4.12025   4.14665   4.19719   4.20348
 Alpha virt. eigenvalues --    4.22784   4.23221   4.28372   4.30289   4.36328
 Alpha virt. eigenvalues --    4.38493   4.38858   4.45107   4.45251   4.47311
 Alpha virt. eigenvalues --    4.53885   4.59016   4.59878   4.61607   4.64225
 Alpha virt. eigenvalues --    4.69181   4.72854   4.77129   4.80321   4.80856
 Alpha virt. eigenvalues --    4.83805   4.86432   4.87422   4.87804   4.95858
 Alpha virt. eigenvalues --    5.00806   5.01406   5.05152   5.10527   5.14319
 Alpha virt. eigenvalues --    5.19722   5.20403   5.25979   5.27347   5.31318
 Alpha virt. eigenvalues --    5.36144   5.37585   5.39419   5.41447   5.45566
 Alpha virt. eigenvalues --    5.49379   5.54697   5.57253   5.58363   5.58734
 Alpha virt. eigenvalues --    5.64229   5.65112   5.65494   5.74372   5.79918
 Alpha virt. eigenvalues --    5.82126   5.87436   5.89276   6.04595   6.07395
 Alpha virt. eigenvalues --    6.10254   6.12092   6.18700   6.28871   6.35846
 Alpha virt. eigenvalues --    6.44829   6.46912   6.59751   6.66767   6.71275
 Alpha virt. eigenvalues --    6.85574   6.89303   6.93938   7.00186   7.54786
 Alpha virt. eigenvalues --    7.68174   7.71633  16.77799  17.23640  18.54169
 Alpha virt. eigenvalues --   18.87953  19.64715
          Condensed to atoms (all electrons):
               1          2          3          4          5          6
     1  C    6.513110  -0.167738  -0.132875  -0.264812   0.264596   0.182153
     2  C   -0.167738   6.513110   0.264596  -0.264812  -0.132875   0.030883
     3  N   -0.132875   0.264596   6.177808   0.454045  -0.257219   0.002406
     4  C   -0.264812  -0.264812   0.454045   6.247076   0.454045  -0.022786
     5  N    0.264596  -0.132875  -0.257219   0.454045   6.177808  -0.002614
     6  H    0.182153   0.030883   0.002406  -0.022786  -0.002614   0.199869
     7  H    0.030883   0.182153  -0.002614  -0.022786   0.002406  -0.000942
     8  H    0.015900  -0.071028   0.472854  -0.117882  -0.007701   0.000404
     9  H   -0.021280  -0.021280   0.017052   0.161856   0.017052  -0.002855
    10  H   -0.071028   0.015900  -0.007701  -0.117882   0.472854   0.013346
               7          8          9         10
     1  C    0.030883   0.015900  -0.021280  -0.071028
     2  C    0.182153  -0.071028  -0.021280   0.015900
     3  N   -0.002614   0.472854   0.017052  -0.007701
     4  C   -0.022786  -0.117882   0.161856  -0.117882
     5  N    0.002406  -0.007701   0.017052   0.472854
     6  H   -0.000942   0.000404  -0.002855   0.013346
     7  H    0.199869   0.013346  -0.002855   0.000404
     8  H    0.013346   0.524481   0.005619   0.001138
     9  H   -0.002855   0.005619   0.186488   0.005619
    10  H    0.000404   0.001138   0.005619   0.524481
 Mulliken charges:
               1
     1  C   -0.348910
     2  C   -0.348910
     3  N    0.011649
     4  C   -0.506065
     5  N    0.011649
     6  H    0.600136
     7  H    0.600136
     8  H    0.162867
     9  H    0.654582
    10  H    0.162867
 Sum of Mulliken charges =   1.00000
 Mulliken charges with hydrogens summed into heavy atoms:
               1
     1  C    0.251226
     2  C    0.251226
     3  N    0.174516
     4  C    0.148517
     5  N    0.174516
 DipInt: DoE/N= T F RetVal/Mat= T F Init=T NMatP=  1 IDeriv=0 Min/MaxMlt=  0  4
 Entering OneElI...
 OneElI was handed  4294558166 working-precision words.
 Multipole integrals L=0 to 4 MinM= 0 MaxM= 0.
 Requested accuracy = 0.1000D-12
 ShPair: Thresh= 1.00D-13 NBox=     0 BxSize= 0.00D+00 RnKept= 7.92D+00
         NSMCal=                 6670 NSMKep=                6664
 PrmmSu-InSpLW:  IPartL=    0 NPrtUS=    1 NPrtUL=    1 DoSpLW=F IThBeg=    0 IThEnd=    0 NThAct=    1.
 PrSmSu:  IncTry=   512 NBBP=           6664 NTPThr=   100 NPartT=    1 Incr=          66 LDynOK=F GPUOK=F.
 PrsmSu:  NPrtUS=   1 ThrOK=F IAlg=2 LenDen=           0 ISkipM=0 DoSpLW=F IThBeg=    0 IThEnd=    0.
 Prism:   IPart=     0 DynPar=F LinDyn=F Incr=          66.
 PRISM was handed  4294081528 working-precision words and  6664 shell-pairs
 IPart=  0 NShTot=        6664 NBatch=          82 AvBLen=        81.3
 PrsmSu-ThDecC:  IPartSL=    0    0 NPrtUSL=    1    1 IThBeg=    0 IThEnd=    0 CPU=   -1 GPU=   -1 NThAct=    1.
 PrSmSu:  NxtVal=             67.
 Electronic moments (au):
        -36.00000000         -0.00000000          0.00000000          0.67148144
        -22.38299287       -126.99834538       -128.59809669         -0.00000000
         -0.00000000          0.00000000         -0.00000000         -0.00000000
         22.93795844         -0.00000000         -0.00000000          2.88183370
          0.00000000         -0.00000000         10.30417932          0.00000000
        -79.05633761       -987.52503768      -1131.65894507         -0.00000000
         -0.00000000         -0.00000000         -0.00000000         -0.00000000
         -0.00000000        -86.82179624        -95.12353637       -380.11644598
         -0.00000000         -0.00000000         -0.00000000
 Electronic spatial extent (au):  <R**2>=            277.9794
 DipInt: DoE/N= F T RetVal/Mat= T F Init=T NMatP=  1 IDeriv=0 Min/MaxMlt=  0  4
 Nuclear    moments (au):
         37.00000000          0.00000000         -0.00000000         -0.00000000
          0.00000000        117.18935236        116.37644113          0.00000000
          0.00000000          0.00000000          0.00000000          0.00000000
        -13.44350134          0.00000000          0.00000000         -0.00000000
         -0.00000000          0.00000000         -5.77777224         -0.00000000
          0.00000000        752.32753578        809.58467696          0.00000000
          0.00000000          0.00000000          0.00000000          0.00000000
          0.00000000          0.00000000          0.00000000        287.01815918
          0.00000000          0.00000000          0.00000000
 Total      moments (au):
          1.00000000         -0.00000000         -0.00000000          0.67148144
        -22.38299287         -9.80899303        -12.22165556          0.00000000
          0.00000000          0.00000000         -0.00000000         -0.00000000
          9.49445710          0.00000000         -0.00000000          2.88183370
         -0.00000000         -0.00000000          4.52640708         -0.00000000
        -79.05633761       -235.19750190       -322.07426811         -0.00000000
         -0.00000000         -0.00000000         -0.00000000         -0.00000000
         -0.00000000        -86.82179624        -95.12353637        -93.09828681
         -0.00000000          0.00000000          0.00000000
 Traceless Quadrup. (au):
         -7.57844572          4.99555413          2.58289159          0.00000000
          0.00000000          0.00000000
 Charge=              1.0000 electrons
 Dipole moment (field-independent basis, Debye):
    X=             -0.0000    Y=             -0.0000    Z=              1.7067  Tot=              1.7067
 Quadrupole moment (field-independent basis, Debye-Ang):
   XX=            -30.1059   YY=            -13.1934   ZZ=            -16.4385
   XY=              0.0000   XZ=              0.0000   YZ=              0.0000
 Traceless Quadrupole moment (field-independent basis, Debye-Ang):
   XX=            -10.1933   YY=              6.7192   ZZ=              3.4741
   XY=              0.0000   XZ=              0.0000   YZ=              0.0000
 Octapole moment (field-independent basis, Debye-Ang**2):
  XXX=             -0.0000  YYY=             -0.0000  ZZZ=              6.7578  XYY=              0.0000
  XXY=             -0.0000  XXZ=              2.0512  XZZ=             -0.0000  YZZ=             -0.0000
  YYZ=              3.2217  XYZ=             -0.0000
 Hexadecapole moment (field-independent basis, Debye-Ang**3):
 XXXX=            -29.7764 YYYY=            -88.5867 ZZZZ=           -121.3086 XXXY=             -0.0000
 XXXZ=             -0.0000 YYYX=             -0.0000 YYYZ=             -0.0000 ZZZX=             -0.0000
 ZZZY=             -0.0000 XXYY=            -32.7013 XXZZ=            -35.8281 YYZZ=            -35.0653
 XXYZ=             -0.0000 YYXZ=              0.0000 ZZXY=              0.0000
 N-N= 1.751153557190D+02 E-N=-8.677453039648D+02  KE= 2.251862240816D+02
 Symmetry A1   KE= 1.270015610457D+02
 Symmetry A2   KE= 3.288582672998D+00
 Symmetry B1   KE= 4.876936737924D+00
 Symmetry B2   KE= 9.001914362497D+01
 SetAtRh:  ITypeU=  23 NETotI=      -1 ICharg=  0 NETot=      37.
 StAtR1:  I=    1 I1=    1 IA=  6 C=   6.0 OKShel=TTT
                                                  SSP
                                                  222
 StAtR1:  I=    2 I1=    2 IA=  6 C=   6.0 OKShel=TTT
                                                  SSP
                                                  222
 StAtR1:  I=    3 I1=    3 IA=  7 C=   7.0 OKShel=TTT
                                                  SSP
                                                  223
 StAtR1:  I=    4 I1=    4 IA=  6 C=   6.0 OKShel=TTT
                                                  SSP
                                                  222
 StAtR1:  I=    5 I1=    5 IA=  7 C=   7.0 OKShel=TTT
                                                  SSP
                                                  223
 StAtR1:  I=    6 I1=    6 IA=  1 C=   1.0 OKShel=T
                                                  S
                                                  1
 StAtR1:  I=    7 I1=    7 IA=  1 C=   1.0 OKShel=T
                                                  S
                                                  1
 StAtR1:  I=    8 I1=    8 IA=  1 C=   1.0 OKShel=T
                                                  S
                                                  1
 StAtR1:  I=    9 I1=    9 IA=  1 C=   1.0 OKShel=T
                                                  S
                                                  1
 StAtR1:  I=   10 I1=   10 IA=  1 C=   1.0 OKShel=T
                                                  S
                                                  1
          I=    1 IA=  6 I1=    1 NAtG=23 NE=   6.000 C=   6.000 Err= 1.75D-11
          I=    2 IA=  6 I1=    2 NAtG=23 NE=   6.000 C=   6.000 Err= 1.75D-11
          I=    3 IA=  7 I1=    3 NAtG=22 NE=   7.000 C=   7.000 Err= 6.08D-13
          I=    4 IA=  6 I1=    4 NAtG=23 NE=   6.000 C=   6.000 Err= 1.75D-11
          I=    5 IA=  7 I1=    5 NAtG=22 NE=   7.000 C=   7.000 Err= 6.08D-13
          I=    6 IA=  1 I1=    6 NAtG=20 NE=   1.000 C=   1.000 Err= 2.80D-12
          I=    7 IA=  1 I1=    7 NAtG=20 NE=   1.000 C=   1.000 Err= 2.80D-12
          I=    8 IA=  1 I1=    8 NAtG=20 NE=   1.000 C=   1.000 Err= 2.80D-12
          I=    9 IA=  1 I1=    9 NAtG=20 NE=   1.000 C=   1.000 Err= 2.80D-12
          I=   10 IA=  1 I1=   10 NAtG=20 NE=   1.000 C=   1.000 Err= 2.80D-12
 Pruned (  99, 590) grid will be used in numerical quadrature.
 IPart=  0 IRanGd=          0 ScrnBf=T ScrnGd=T RCrit=4.00D+00 DoMicB=T.
 CutRad = 1000.00    CtRdIn =    0.00    XCrit =  15.00   ICut = 0
 Pruned (  99, 590) grid will be used in numerical quadrature.
 IPart=  1 IRanGd=          0 ScrnBf=T ScrnGd=T RCrit=4.00D+00 DoMicB=T.
 Pruned (  99, 590) grid will be used in numerical quadrature.
 CutRad = 1000.00    CtRdIn =    0.00    XCrit =  15.00   ICut = 0
 Pruned (  99, 590) grid will be used in numerical quadrature.
 IPart=  5 IRanGd=          0 ScrnBf=T ScrnGd=T RCrit=4.00D+00 DoMicB=T.
 CutRad = 1000.00    CtRdIn =    0.00    XCrit =  15.00   ICut = 0
 IPart= 12 IRanGd=          0 ScrnBf=T ScrnGd=T RCrit=4.00D+00 DoMicB=T.
 Pruned (  99, 590) grid will be used in numerical quadrature.
 Pruned (  99, 590) grid will be used in numerical quadrature.
 Pruned (  99, 590) grid will be used in numerical quadrature.
 IPart=  9 IRanGd=          0 ScrnBf=T ScrnGd=T RCrit=4.00D+00 DoMicB=T.
 Pruned (  99, 590) grid will be used in numerical quadrature.
 CutRad = 1000.00    CtRdIn =    0.00    XCrit =  15.00   ICut = 0
 IPart= 13 IRanGd=          0 ScrnBf=T ScrnGd=T RCrit=4.00D+00 DoMicB=T.
 IPart= 14 IRanGd=          0 ScrnBf=T ScrnGd=T RCrit=4.00D+00 DoMicB=T.
 Pruned (  99, 590) grid will be used in numerical quadrature.
 CutRad = 1000.00    CtRdIn =    0.00    XCrit =  15.00   ICut = 0
 Pruned (  99, 590) grid will be used in numerical quadrature.
 IPart=  7 IRanGd=          0 ScrnBf=T ScrnGd=T RCrit=4.00D+00 DoMicB=T.
 CutRad = 1000.00    CtRdIn =    0.00    XCrit =  15.00   ICut = 0
 CutRad = 1000.00    CtRdIn =    0.00    XCrit =  15.00   ICut = 0
 IPart=  0 Atom number   1 atomic number  6 has       23114 grid points.
 CutRad = 1000.00    CtRdIn =    0.00    XCrit =  15.00   ICut = 0
 Pruned (  99, 590) grid will be used in numerical quadrature.
 IPart= 10 IRanGd=          0 ScrnBf=T ScrnGd=T RCrit=4.00D+00 DoMicB=T.
 CutRad = 1000.00    CtRdIn =    0.00    XCrit =  15.00   ICut = 0
 IPart=  0 Atom   1 batch    1 overlaps   10 atoms,   110 shells and    10 DB shells.   NGrid=      2408
 IPart=  3 IRanGd=          0 ScrnBf=T ScrnGd=T RCrit=4.00D+00 DoMicB=T.
 CutRad = 1000.00    CtRdIn =    0.00    XCrit =  15.00   ICut = 0
 Pruned (  99, 590) grid will be used in numerical quadrature.
 Pruned (  99, 590) grid will be used in numerical quadrature.
 Pruned (  99, 590) grid will be used in numerical quadrature.
 IPart= 11 IRanGd=          0 ScrnBf=T ScrnGd=T RCrit=4.00D+00 DoMicB=T.
 CutRad = 1000.00    CtRdIn =    0.00    XCrit =  15.00   ICut = 0
 IPart=  6 IRanGd=          0 ScrnBf=T ScrnGd=T RCrit=4.00D+00 DoMicB=T.
 CutRad = 1000.00    CtRdIn =    0.00    XCrit =  15.00   ICut = 0
 Symmetry reduced    86 angular points to    86 for atom    1.
 Pruned (  99, 590) grid will be used in numerical quadrature.
 Pruned (  99, 590) grid will be used in numerical quadrature.
 IPart=  8 IRanGd=          0 ScrnBf=T ScrnGd=T RCrit=4.00D+00 DoMicB=T.
 CutRad = 1000.00    CtRdIn =    0.00    XCrit =  15.00   ICut = 0
 Pruned (  99, 590) grid will be used in numerical quadrature.
 IPart=  2 IRanGd=          0 ScrnBf=T ScrnGd=T RCrit=4.00D+00 DoMicB=T.
 CutRad = 1000.00    CtRdIn =    0.00    XCrit =  15.00   ICut = 0
 IPart=  4 IRanGd=          0 ScrnBf=T ScrnGd=T RCrit=4.00D+00 DoMicB=T.
 CutRad = 1000.00    CtRdIn =    0.00    XCrit =  15.00   ICut = 0
 IPart= 15 IRanGd=          0 ScrnBf=T ScrnGd=T RCrit=4.00D+00 DoMicB=T.
 CutRad = 1000.00    CtRdIn =    0.00    XCrit =  15.00   ICut = 0
 Pruned (  99, 590) grid will be used in numerical quadrature.
 IPart=  1 Atom number   1 atomic number  6 has       23114 grid points.
 IPart=  1 Atom   1 batch    2 overlaps   10 atoms,   113 shells and    10 DB shells.   NGrid=      2522
 Pruned (  99, 590) grid will be used in numerical quadrature.
 Symmetry reduced   194 angular points to   194 for atom    1.
 IPart=  5 Atom number   1 atomic number  6 has       23114 grid points.
 IPart=  5 Atom   1 batch    3 overlaps   10 atoms,   114 shells and    10 DB shells.   NGrid=      2114
 Symmetry reduced   302 angular points to   302 for atom    1.
 Pruned (  99, 590) grid will be used in numerical quadrature.
 IPart=  9 Atom number   1 atomic number  6 has       23114 grid points.
 IPart=  9 Atom   1 batch    4 overlaps   10 atoms,   115 shells and    10 DB shells.   NGrid=      1180
 Pruned (  99, 590) grid will be used in numerical quadrature.
 Symmetry reduced   590 angular points to   590 for atom    1.
 IPart= 12 Atom number   1 atomic number  6 has       23114 grid points.
 IPart= 12 Atom   1 batch    5 overlaps   10 atoms,   115 shells and    10 DB shells.   NGrid=      1180
 Pruned (  99, 590) grid will be used in numerical quadrature.
 Pruned (  99, 590) grid will be used in numerical quadrature.
 Symmetry reduced   590 angular points to   590 for atom    1.
 Pruned (  99, 590) grid will be used in numerical quadrature.
 IPart= 14 Atom number   1 atomic number  6 has       23114 grid points.
 Pruned (  99, 590) grid will be used in numerical quadrature.
 IPart= 14 Atom   1 batch    6 overlaps   10 atoms,   115 shells and    10 DB shells.   NGrid=      1180
 IPart= 10 Atom number   1 atomic number  6 has       23114 grid points.
 IPart= 13 Atom number   1 atomic number  6 has       23114 grid points.
 Symmetry reduced   590 angular points to   590 for atom    1.
 IPart= 13 Atom   1 batch    8 overlaps   10 atoms,   115 shells and    10 DB shells.   NGrid=      1180
 IPart= 10 Atom   1 batch    9 overlaps   10 atoms,   115 shells and    10 DB shells.   NGrid=      1180
 Pruned (  99, 590) grid will be used in numerical quadrature.
 Symmetry reduced   590 angular points to   590 for atom    1.
 IPart=  3 Atom number   1 atomic number  6 has       23114 grid points.
 Symmetry reduced   590 angular points to   590 for atom    1.
 IPart=  3 Atom   1 batch   10 overlaps   10 atoms,   115 shells and    10 DB shells.   NGrid=      1180
 Pruned (  99, 590) grid will be used in numerical quadrature.
 Symmetry reduced   590 angular points to   590 for atom    1.
 IPart= 11 Atom number   1 atomic number  6 has       23114 grid points.
 IPart=  7 Atom number   1 atomic number  6 has       23114 grid points.
 IPart= 11 Atom   1 batch   12 overlaps   10 atoms,   114 shells and    10 DB shells.   NGrid=       590
 IPart=  7 Atom   1 batch    7 overlaps   10 atoms,   115 shells and    10 DB shells.   NGrid=      1180
 Pruned (  99, 590) grid will be used in numerical quadrature.
 Symmetry reduced   590 angular points to   590 for atom    1.
 IPart=  6 Atom number   1 atomic number  6 has       23114 grid points.
 Symmetry reduced   590 angular points to   590 for atom    1.
 IPart=  6 Atom   1 batch   11 overlaps   10 atoms,   114 shells and    10 DB shells.   NGrid=      1180
 Pruned (  99, 590) grid will be used in numerical quadrature.
 Symmetry reduced   590 angular points to   590 for atom    1.
 IPart=  8 Atom number   1 atomic number  6 has       23114 grid points.
 Pruned (  99, 590) grid will be used in numerical quadrature.
 IPart=  8 Atom   1 batch   13 overlaps   10 atoms,   114 shells and    10 DB shells.   NGrid=       604
 IPart=  2 Atom number   1 atomic number  6 has       23114 grid points.
 Pruned (  99, 590) grid will be used in numerical quadrature.
 Symmetry reduced   302 angular points to   302 for atom    1.
 IPart=  4 Atom number   1 atomic number  6 has       23114 grid points.
 IPart=  2 Atom   1 batch   14 overlaps   10 atoms,   114 shells and    10 DB shells.   NGrid=       604
 IPart=  4 Atom   1 batch   15 overlaps   10 atoms,   109 shells and    10 DB shells.   NGrid=       604
 Symmetry reduced   302 angular points to   302 for atom    1.
 Symmetry reduced   302 angular points to   302 for atom    1.
 Pruned (  99, 590) grid will be used in numerical quadrature.
 IPart= 15 Atom number   1 atomic number  6 has       23114 grid points.
 IPart= 15 Atom   1 batch   16 overlaps   10 atoms,   102 shells and    10 DB shells.   NGrid=       604
 Symmetry reduced   302 angular points to   302 for atom    1.
 IPart= 15 Atom   1 batch   17 overlaps   10 atoms,    90 shells and    10 DB shells.   NGrid=       604
 IPart=  4 Atom   1 batch   18 overlaps   10 atoms,    70 shells and    10 DB shells.   NGrid=       604
 IPart=  2 Atom   1 batch   19 overlaps   10 atoms,    50 shells and    10 DB shells.   NGrid=       604
 IPart= 15 Atom   1 batch   20 overlaps   10 atoms,    32 shells and     6 DB shells.   NGrid=       604
 IPart=  4 Atom   1 batch   21 overlaps   10 atoms,    15 shells and     0 DB shells.   NGrid=       604
 IPart= 11 Atom   1 batch   22 overlaps   10 atoms,     6 shells and     0 DB shells.   NGrid=       604
 Symmetry reduced   302 angular points to   302 for atom    1.
 Pruned (  99, 590) grid will be used in numerical quadrature.
 IPart= 15 Atom number   2 atomic number  6 has       23114 grid points.
 IPart= 15 Atom   2 batch    1 overlaps   10 atoms,   110 shells and    10 DB shells.   NGrid=      2408
 Symmetry reduced    86 angular points to    86 for atom    2.
 Pruned (  99, 590) grid will be used in numerical quadrature.
 IPart=  8 Atom number   2 atomic number  6 has       23114 grid points.
 IPart=  8 Atom   2 batch    2 overlaps   10 atoms,   113 shells and    10 DB shells.   NGrid=      2522
 Pruned (  99, 590) grid will be used in numerical quadrature.
 Symmetry reduced   194 angular points to   194 for atom    2.
 IPart=  2 Atom number   2 atomic number  6 has       23114 grid points.
 IPart=  2 Atom   2 batch    3 overlaps   10 atoms,   114 shells and    10 DB shells.   NGrid=      2114
 Symmetry reduced   302 angular points to   302 for atom    2.
 Pruned (  99, 590) grid will be used in numerical quadrature.
 Pruned (  99, 590) grid will be used in numerical quadrature.
 IPart= 11 Atom number   2 atomic number  6 has       23114 grid points.
 IPart=  4 Atom number   2 atomic number  6 has       23114 grid points.
 IPart= 11 Atom   2 batch    4 overlaps   10 atoms,   115 shells and    10 DB shells.   NGrid=      1180
 IPart=  4 Atom   2 batch    5 overlaps   10 atoms,   115 shells and    10 DB shells.   NGrid=      1180
 Symmetry reduced   590 angular points to   590 for atom    2.
 Symmetry reduced   590 angular points to   590 for atom    2.
 Pruned (  99, 590) grid will be used in numerical quadrature.
 IPart=  6 Atom number   2 atomic number  6 has       23114 grid points.
 IPart=  6 Atom   2 batch    6 overlaps   10 atoms,   115 shells and    10 DB shells.   NGrid=      1180
 Symmetry reduced   590 angular points to   590 for atom    2.
 Pruned (  99, 590) grid will be used in numerical quadrature.
 IPart=  3 Atom number   2 atomic number  6 has       23114 grid points.
 IPart=  3 Atom   2 batch    7 overlaps   10 atoms,   115 shells and    10 DB shells.   NGrid=      1180
 Symmetry reduced   590 angular points to   590 for atom    2.
 Pruned (  99, 590) grid will be used in numerical quadrature.
 IPart=  9 Atom number   2 atomic number  6 has       23114 grid points.
 IPart=  9 Atom   2 batch    8 overlaps   10 atoms,   115 shells and    10 DB shells.   NGrid=      1180
 Symmetry reduced   590 angular points to   590 for atom    2.
 Pruned (  99, 590) grid will be used in numerical quadrature.
 IPart= 12 Atom number   2 atomic number  6 has       23114 grid points.
 Pruned (  99, 590) grid will be used in numerical quadrature.
 IPart= 12 Atom   2 batch    9 overlaps   10 atoms,   115 shells and    10 DB shells.   NGrid=      1180
 IPart= 13 Atom number   2 atomic number  6 has       23114 grid points.
 Symmetry reduced   590 angular points to   590 for atom    2.
 IPart= 13 Atom   2 batch   10 overlaps   10 atoms,   115 shells and    10 DB shells.   NGrid=      1180
 Symmetry reduced   590 angular points to   590 for atom    2.
 Pruned (  99, 590) grid will be used in numerical quadrature.
 IPart= 10 Atom number   2 atomic number  6 has       23114 grid points.
 IPart= 10 Atom   2 batch   11 overlaps   10 atoms,   114 shells and    10 DB shells.   NGrid=      1180
 Symmetry reduced   590 angular points to   590 for atom    2.
 Pruned (  99, 590) grid will be used in numerical quadrature.
 IPart= 14 Atom number   2 atomic number  6 has       23114 grid points.
 IPart= 14 Atom   2 batch   12 overlaps   10 atoms,   114 shells and    10 DB shells.   NGrid=       590
 Symmetry reduced   590 angular points to   590 for atom    2.
 Pruned (  99, 590) grid will be used in numerical quadrature.
 IPart=  7 Atom number   2 atomic number  6 has       23114 grid points.
 IPart=  7 Atom   2 batch   13 overlaps   10 atoms,   114 shells and    10 DB shells.   NGrid=       604
 Symmetry reduced   302 angular points to   302 for atom    2.
 IPart= 14 Atom   2 batch   14 overlaps   10 atoms,   114 shells and    10 DB shells.   NGrid=       604
 Symmetry reduced   302 angular points to   302 for atom    2.
 IPart= 11 Atom   2 batch   15 overlaps   10 atoms,   109 shells and    10 DB shells.   NGrid=       604
 Symmetry reduced   302 angular points to   302 for atom    2.
 IPart=  4 Atom   2 batch   16 overlaps   10 atoms,   102 shells and    10 DB shells.   NGrid=       604
 Symmetry reduced   302 angular points to   302 for atom    2.
 IPart=  7 Atom   2 batch   17 overlaps   10 atoms,    90 shells and    10 DB shells.   NGrid=       604
 Pruned (  99, 590) grid will be used in numerical quadrature.
 IPart=  5 Atom number   2 atomic number  6 has       23114 grid points.
 IPart=  5 Atom   2 batch   18 overlaps   10 atoms,    70 shells and    10 DB shells.   NGrid=       604
 Symmetry reduced   302 angular points to   302 for atom    2.
 IPart=  7 Atom   2 batch   19 overlaps   10 atoms,    50 shells and    10 DB shells.   NGrid=       604
 Pruned (  99, 590) grid will be used in numerical quadrature.
 IPart=  0 Atom number   2 atomic number  6 has       23114 grid points.
 IPart=  0 Atom   2 batch   20 overlaps   10 atoms,    32 shells and     6 DB shells.   NGrid=       604
 Symmetry reduced   302 angular points to   302 for atom    2.
 IPart=  0 Atom   2 batch   21 overlaps   10 atoms,    15 shells and     0 DB shells.   NGrid=       604
 IPart=  7 Atom   2 batch   22 overlaps   10 atoms,     6 shells and     0 DB shells.   NGrid=       604
 Pruned (  99, 590) grid will be used in numerical quadrature.
 IPart=  4 Atom number   3 atomic number  7 has       23416 grid points.
 IPart=  4 Atom   3 batch    1 overlaps   10 atoms,   110 shells and    10 DB shells.   NGrid=      2408
 Symmetry reduced    86 angular points to    86 for atom    3.
 Pruned (  99, 590) grid will be used in numerical quadrature.
 IPart=  5 Atom number   3 atomic number  7 has       23416 grid points.
 Pruned (  99, 590) grid will be used in numerical quadrature.
 IPart=  5 Atom   3 batch    2 overlaps   10 atoms,   112 shells and    10 DB shells.   NGrid=      2522
 IPart=  0 Atom number   3 atomic number  7 has       23416 grid points.
 Symmetry reduced   194 angular points to   194 for atom    3.
 IPart=  0 Atom   3 batch    3 overlaps   10 atoms,   114 shells and    10 DB shells.   NGrid=      2114
 Symmetry reduced   302 angular points to   302 for atom    3.
 Pruned (  99, 590) grid will be used in numerical quadrature.
 IPart=  7 Atom number   3 atomic number  7 has       23416 grid points.
 IPart=  7 Atom   3 batch    4 overlaps   10 atoms,   115 shells and    10 DB shells.   NGrid=      1180
 Pruned (  99, 590) grid will be used in numerical quadrature.
 Symmetry reduced   590 angular points to   590 for atom    3.
 IPart= 11 Atom number   3 atomic number  7 has       23416 grid points.
 IPart= 11 Atom   3 batch    5 overlaps   10 atoms,   115 shells and    10 DB shells.   NGrid=      1180
 Symmetry reduced   590 angular points to   590 for atom    3.
 Pruned (  99, 590) grid will be used in numerical quadrature.
 IPart= 10 Atom number   3 atomic number  7 has       23416 grid points.
 IPart= 10 Atom   3 batch    6 overlaps   10 atoms,   115 shells and    10 DB shells.   NGrid=      1180
 Symmetry reduced   590 angular points to   590 for atom    3.
 Pruned (  99, 590) grid will be used in numerical quadrature.
 IPart=  6 Atom number   3 atomic number  7 has       23416 grid points.
 IPart=  6 Atom   3 batch    7 overlaps   10 atoms,   115 shells and    10 DB shells.   NGrid=      1180
 Symmetry reduced   590 angular points to   590 for atom    3.
 Pruned (  99, 590) grid will be used in numerical quadrature.
 IPart= 14 Atom number   3 atomic number  7 has       23416 grid points.
 IPart= 14 Atom   3 batch    8 overlaps   10 atoms,   115 shells and    10 DB shells.   NGrid=      1180
 Symmetry reduced   590 angular points to   590 for atom    3.
 Pruned (  99, 590) grid will be used in numerical quadrature.
 IPart=  1 Atom number   2 atomic number  6 has       23114 grid points.
 Pruned (  99, 590) grid will be used in numerical quadrature.
 IPart=  1 Atom number   3 atomic number  7 has       23416 grid points.
 IPart=  1 Atom   3 batch    9 overlaps   10 atoms,   115 shells and    10 DB shells.   NGrid=      1180
 Symmetry reduced   590 angular points to   590 for atom    3.
 Pruned (  99, 590) grid will be used in numerical quadrature.
 IPart= 13 Atom number   3 atomic number  7 has       23416 grid points.
 IPart= 13 Atom   3 batch   10 overlaps   10 atoms,   115 shells and    10 DB shells.   NGrid=      1180
 Symmetry reduced   590 angular points to   590 for atom    3.
 Pruned (  99, 590) grid will be used in numerical quadrature.
 IPart= 12 Atom number   3 atomic number  7 has       23416 grid points.
 IPart= 12 Atom   3 batch   11 overlaps   10 atoms,   115 shells and    10 DB shells.   NGrid=      1180
 Symmetry reduced   590 angular points to   590 for atom    3.
 Pruned (  99, 590) grid will be used in numerical quadrature.
 IPart=  3 Atom number   3 atomic number  7 has       23416 grid points.
 IPart=  3 Atom   3 batch   12 overlaps   10 atoms,   114 shells and    10 DB shells.   NGrid=       590
 Symmetry reduced   590 angular points to   590 for atom    3.
 Pruned (  99, 590) grid will be used in numerical quadrature.
 IPart=  9 Atom number   3 atomic number  7 has       23416 grid points.
 IPart=  9 Atom   3 batch   13 overlaps   10 atoms,   114 shells and    10 DB shells.   NGrid=       604
 Symmetry reduced   302 angular points to   302 for atom    3.
 Pruned (  99, 590) grid will be used in numerical quadrature.
 IPart=  2 Atom number   3 atomic number  7 has       23416 grid points.
 IPart=  2 Atom   3 batch   14 overlaps   10 atoms,   114 shells and    10 DB shells.   NGrid=       604
 Symmetry reduced   302 angular points to   302 for atom    3.
 Pruned (  99, 590) grid will be used in numerical quadrature.
 IPart= 15 Atom number   3 atomic number  7 has       23416 grid points.
 IPart= 15 Atom   3 batch   15 overlaps   10 atoms,   112 shells and    10 DB shells.   NGrid=       604
 Symmetry reduced   302 angular points to   302 for atom    3.
 IPart=  3 Atom   3 batch   16 overlaps   10 atoms,   108 shells and    10 DB shells.   NGrid=       604
 Symmetry reduced   302 angular points to   302 for atom    3.
 IPart=  9 Atom   3 batch   17 overlaps   10 atoms,   104 shells and    10 DB shells.   NGrid=       604
 Pruned (  99, 590) grid will be used in numerical quadrature.
 IPart=  8 Atom number   3 atomic number  7 has       23416 grid points.
 IPart=  8 Atom   3 batch   18 overlaps   10 atoms,    85 shells and    10 DB shells.   NGrid=       604
 Symmetry reduced   302 angular points to   302 for atom    3.
 IPart=  2 Atom   3 batch   19 overlaps   10 atoms,    63 shells and    10 DB shells.   NGrid=       604
 IPart=  8 Atom   3 batch   20 overlaps   10 atoms,    44 shells and     9 DB shells.   NGrid=       604
 IPart= 15 Atom   3 batch   21 overlaps   10 atoms,    27 shells and     5 DB shells.   NGrid=       604
 IPart=  9 Atom   3 batch   22 overlaps   10 atoms,    12 shells and     0 DB shells.   NGrid=       604
 IPart=  8 Atom   3 batch   23 overlaps   10 atoms,     4 shells and     0 DB shells.   NGrid=       302
 Pruned (  99, 590) grid will be used in numerical quadrature.
 Pruned (  99, 590) grid will be used in numerical quadrature.
 IPart=  2 Atom number   4 atomic number  6 has       23114 grid points.
 IPart= 15 Atom number   4 atomic number  6 has       23114 grid points.
 IPart=  2 Atom   4 batch    1 overlaps   10 atoms,   109 shells and    10 DB shells.   NGrid=      2408
 IPart= 15 Atom   4 batch    2 overlaps   10 atoms,   113 shells and    10 DB shells.   NGrid=      2522
 Symmetry reduced    86 angular points to    86 for atom    4.
 Symmetry reduced   194 angular points to   194 for atom    4.
 Pruned (  99, 590) grid will be used in numerical quadrature.
 IPart=  8 Atom number   4 atomic number  6 has       23114 grid points.
 IPart=  8 Atom   4 batch    3 overlaps   10 atoms,   115 shells and    10 DB shells.   NGrid=      2114
 Symmetry reduced   302 angular points to   302 for atom    4.
 Pruned (  99, 590) grid will be used in numerical quadrature.
 IPart=  3 Atom number   4 atomic number  6 has       23114 grid points.
 IPart=  3 Atom   4 batch    4 overlaps   10 atoms,   115 shells and    10 DB shells.   NGrid=      1180
 Symmetry reduced   590 angular points to   590 for atom    4.
 Pruned (  99, 590) grid will be used in numerical quadrature.
 IPart=  9 Atom number   4 atomic number  6 has       23114 grid points.
 IPart=  9 Atom   4 batch    5 overlaps   10 atoms,   115 shells and    10 DB shells.   NGrid=      1180
 Symmetry reduced   590 angular points to   590 for atom    4.
 Pruned (  99, 590) grid will be used in numerical quadrature.
 IPart=  7 Atom number   4 atomic number  6 has       23114 grid points.
 IPart=  7 Atom   4 batch    6 overlaps   10 atoms,   115 shells and    10 DB shells.   NGrid=      1180
 Symmetry reduced   590 angular points to   590 for atom    4.
 Pruned (  99, 590) grid will be used in numerical quadrature.
 IPart= 11 Atom number   4 atomic number  6 has       23114 grid points.
 IPart= 11 Atom   4 batch    7 overlaps   10 atoms,   115 shells and    10 DB shells.   NGrid=      1180
 Symmetry reduced   590 angular points to   590 for atom    4.
 Pruned (  99, 590) grid will be used in numerical quadrature.
 IPart= 10 Atom number   4 atomic number  6 has       23114 grid points.
 IPart= 10 Atom   4 batch    8 overlaps   10 atoms,   115 shells and    10 DB shells.   NGrid=      1180
 Symmetry reduced   590 angular points to   590 for atom    4.
 Pruned (  99, 590) grid will be used in numerical quadrature.
 IPart=  6 Atom number   4 atomic number  6 has       23114 grid points.
 IPart=  6 Atom   4 batch    9 overlaps   10 atoms,   115 shells and    10 DB shells.   NGrid=      1180
 Symmetry reduced   590 angular points to   590 for atom    4.
 Pruned (  99, 590) grid will be used in numerical quadrature.
 IPart= 12 Atom number   4 atomic number  6 has       23114 grid points.
 IPart= 12 Atom   4 batch   10 overlaps   10 atoms,   115 shells and    10 DB shells.   NGrid=      1180
 Symmetry reduced   590 angular points to   590 for atom    4.
 Pruned (  99, 590) grid will be used in numerical quadrature.
 Pruned (  99, 590) grid will be used in numerical quadrature.
 IPart= 13 Atom number   4 atomic number  6 has       23114 grid points.
 IPart= 14 Atom number   4 atomic number  6 has       23114 grid points.
 IPart= 13 Atom   4 batch   11 overlaps   10 atoms,   114 shells and    10 DB shells.   NGrid=      1180
 IPart= 14 Atom   4 batch   12 overlaps   10 atoms,   114 shells and    10 DB shells.   NGrid=       590
 Symmetry reduced   590 angular points to   590 for atom    4.
 Symmetry reduced   590 angular points to   590 for atom    4.
 Pruned (  99, 590) grid will be used in numerical quadrature.
 IPart=  1 Atom number   4 atomic number  6 has       23114 grid points.
 IPart=  1 Atom   4 batch   13 overlaps   10 atoms,   114 shells and    10 DB shells.   NGrid=       604
 Symmetry reduced   302 angular points to   302 for atom    4.
 IPart= 14 Atom   4 batch   14 overlaps   10 atoms,   112 shells and    10 DB shells.   NGrid=       604
 Symmetry reduced   302 angular points to   302 for atom    4.
 IPart=  1 Atom   4 batch   15 overlaps   10 atoms,   109 shells and    10 DB shells.   NGrid=       604
 Pruned (  99, 590) grid will be used in numerical quadrature.
 IPart=  0 Atom number   4 atomic number  6 has       23114 grid points.
 IPart=  0 Atom   4 batch   16 overlaps   10 atoms,    98 shells and    10 DB shells.   NGrid=       604
 Symmetry reduced   302 angular points to   302 for atom    4.
 Pruned (  99, 590) grid will be used in numerical quadrature.
 IPart=  4 Atom number   4 atomic number  6 has       23114 grid points.
 IPart=  4 Atom   4 batch   17 overlaps   10 atoms,    91 shells and    10 DB shells.   NGrid=       604
 Symmetry reduced   302 angular points to   302 for atom    4.
 IPart=  3 Atom   4 batch   18 overlaps   10 atoms,    67 shells and    10 DB shells.   NGrid=       604
 Symmetry reduced   302 angular points to   302 for atom    4.
 IPart=  0 Atom   4 batch   19 overlaps   10 atoms,    52 shells and    10 DB shells.   NGrid=       604
 IPart= 14 Atom   4 batch   20 overlaps   10 atoms,    32 shells and     6 DB shells.   NGrid=       604
 IPart=  9 Atom   4 batch   21 overlaps   10 atoms,    15 shells and     0 DB shells.   NGrid=       604
 Symmetry reduced   302 angular points to   302 for atom    4.
 IPart=  4 Atom   4 batch   22 overlaps   10 atoms,     7 shells and     0 DB shells.   NGrid=       604
 Pruned (  99, 590) grid will be used in numerical quadrature.
 IPart=  1 Atom number   5 atomic number  7 has       23416 grid points.
 IPart=  1 Atom   5 batch    1 overlaps   10 atoms,   110 shells and    10 DB shells.   NGrid=      2408
 Symmetry reduced    86 angular points to    86 for atom    5.
 Pruned (  99, 590) grid will be used in numerical quadrature.
 IPart=  7 Atom number   5 atomic number  7 has       23416 grid points.
 IPart=  7 Atom   5 batch    2 overlaps   10 atoms,   112 shells and    10 DB shells.   NGrid=      2522
 Symmetry reduced   194 angular points to   194 for atom    5.
 Pruned (  99, 590) grid will be used in numerical quadrature.
 IPart=  5 Atom number   4 atomic number  6 has       23114 grid points.
 Pruned (  99, 590) grid will be used in numerical quadrature.
 Pruned (  99, 590) grid will be used in numerical quadrature.
 IPart= 13 Atom number   5 atomic number  7 has       23416 grid points.
 IPart=  5 Atom number   5 atomic number  7 has       23416 grid points.
 IPart= 13 Atom   5 batch    4 overlaps   10 atoms,   115 shells and    10 DB shells.   NGrid=      1180
 IPart=  5 Atom   5 batch    3 overlaps   10 atoms,   114 shells and    10 DB shells.   NGrid=      2114
 Symmetry reduced   590 angular points to   590 for atom    5.
 Symmetry reduced   302 angular points to   302 for atom    5.
 Pruned (  99, 590) grid will be used in numerical quadrature.
 IPart= 14 Atom number   5 atomic number  7 has       23416 grid points.
 Pruned (  99, 590) grid will be used in numerical quadrature.
 IPart= 14 Atom   5 batch    5 overlaps   10 atoms,   115 shells and    10 DB shells.   NGrid=      1180
 IPart=  4 Atom number   5 atomic number  7 has       23416 grid points.
 Symmetry reduced   590 angular points to   590 for atom    5.
 IPart=  4 Atom   5 batch    6 overlaps   10 atoms,   115 shells and    10 DB shells.   NGrid=      1180
 Symmetry reduced   590 angular points to   590 for atom    5.
 Pruned (  99, 590) grid will be used in numerical quadrature.
 IPart=  9 Atom number   5 atomic number  7 has       23416 grid points.
 IPart=  9 Atom   5 batch    7 overlaps   10 atoms,   115 shells and    10 DB shells.   NGrid=      1180
 Symmetry reduced   590 angular points to   590 for atom    5.
 Pruned (  99, 590) grid will be used in numerical quadrature.
 IPart=  0 Atom number   5 atomic number  7 has       23416 grid points.
 IPart=  0 Atom   5 batch    8 overlaps   10 atoms,   115 shells and    10 DB shells.   NGrid=      1180
 Symmetry reduced   590 angular points to   590 for atom    5.
 Pruned (  99, 590) grid will be used in numerical quadrature.
 IPart= 11 Atom number   5 atomic number  7 has       23416 grid points.
 IPart= 11 Atom   5 batch    9 overlaps   10 atoms,   115 shells and    10 DB shells.   NGrid=      1180
 Symmetry reduced   590 angular points to   590 for atom    5.
 Pruned (  99, 590) grid will be used in numerical quadrature.
 IPart=  3 Atom number   5 atomic number  7 has       23416 grid points.
 IPart=  3 Atom   5 batch   10 overlaps   10 atoms,   115 shells and    10 DB shells.   NGrid=      1180
 Symmetry reduced   590 angular points to   590 for atom    5.
 Pruned (  99, 590) grid will be used in numerical quadrature.
 IPart= 10 Atom number   5 atomic number  7 has       23416 grid points.
 IPart= 10 Atom   5 batch   11 overlaps   10 atoms,   115 shells and    10 DB shells.   NGrid=      1180
 Symmetry reduced   590 angular points to   590 for atom    5.
 Pruned (  99, 590) grid will be used in numerical quadrature.
 IPart=  6 Atom number   5 atomic number  7 has       23416 grid points.
 IPart=  6 Atom   5 batch   12 overlaps   10 atoms,   114 shells and    10 DB shells.   NGrid=       590
 Symmetry reduced   590 angular points to   590 for atom    5.
 Pruned (  99, 590) grid will be used in numerical quadrature.
 IPart= 12 Atom number   5 atomic number  7 has       23416 grid points.
 IPart= 12 Atom   5 batch   13 overlaps   10 atoms,   114 shells and    10 DB shells.   NGrid=       604
 Symmetry reduced   302 angular points to   302 for atom    5.
 IPart=  6 Atom   5 batch   14 overlaps   10 atoms,   114 shells and    10 DB shells.   NGrid=       604
 Symmetry reduced   302 angular points to   302 for atom    5.
 IPart= 12 Atom   5 batch   15 overlaps   10 atoms,   112 shells and    10 DB shells.   NGrid=       604
 Pruned (  99, 590) grid will be used in numerical quadrature.
 IPart=  8 Atom number   5 atomic number  7 has       23416 grid points.
 IPart=  8 Atom   5 batch   16 overlaps   10 atoms,   108 shells and    10 DB shells.   NGrid=       604
 Symmetry reduced   302 angular points to   302 for atom    5.
 Pruned (  99, 590) grid will be used in numerical quadrature.
 IPart=  2 Atom number   5 atomic number  7 has       23416 grid points.
 IPart=  2 Atom   5 batch   17 overlaps   10 atoms,   104 shells and    10 DB shells.   NGrid=       604
 Symmetry reduced   302 angular points to   302 for atom    5.
 Pruned (  99, 590) grid will be used in numerical quadrature.
 IPart= 15 Atom number   5 atomic number  7 has       23416 grid points.
 IPart= 15 Atom   5 batch   18 overlaps   10 atoms,    85 shells and    10 DB shells.   NGrid=       604
 Symmetry reduced   302 angular points to   302 for atom    5.
 IPart= 13 Atom   5 batch   19 overlaps   10 atoms,    63 shells and    10 DB shells.   NGrid=       604
 Symmetry reduced   302 angular points to   302 for atom    5.
 IPart= 14 Atom   5 batch   20 overlaps   10 atoms,    44 shells and     9 DB shells.   NGrid=       604
 Symmetry reduced   302 angular points to   302 for atom    5.
 IPart= 12 Atom   5 batch   21 overlaps   10 atoms,    27 shells and     5 DB shells.   NGrid=       604
 IPart=  8 Atom   5 batch   22 overlaps   10 atoms,    12 shells and     0 DB shells.   NGrid=       604
 IPart= 10 Atom   5 batch   23 overlaps   10 atoms,     4 shells and     0 DB shells.   NGrid=       302
 Symmetry reduced   302 angular points to   302 for atom    5.
 Pruned (  99, 590) grid will be used in numerical quadrature.
 IPart=  4 Atom number   6 atomic number  1 has       23466 grid points.
 IPart=  4 Atom   6 batch    1 overlaps   10 atoms,   102 shells and    10 DB shells.   NGrid=      2838
 Symmetry reduced    86 angular points to    86 for atom    6.
 Pruned (  99, 590) grid will be used in numerical quadrature.
 IPart=  9 Atom number   6 atomic number  1 has       23466 grid points.
 IPart=  9 Atom   6 batch    2 overlaps   10 atoms,   102 shells and    10 DB shells.   NGrid=      1552
 Symmetry reduced   194 angular points to   194 for atom    6.
 Pruned (  99, 590) grid will be used in numerical quadrature.
 IPart= 12 Atom number   6 atomic number  1 has       23466 grid points.
 Pruned (  99, 590) grid will be used in numerical quadrature.
 IPart= 12 Atom   6 batch    3 overlaps   10 atoms,   105 shells and    10 DB shells.   NGrid=      2416
 IPart= 13 Atom number   6 atomic number  1 has       23466 grid points.
 Symmetry reduced   302 angular points to   302 for atom    6.
 IPart= 13 Atom   6 batch    4 overlaps   10 atoms,   106 shells and    10 DB shells.   NGrid=      1180
[...]
 3574 Fit       0.142491
 3575 Fit       0.142324
 3576 Fit       0.142831
 3577 Fit       0.144090
 3578 Fit       0.146288
 3579 Fit       0.149763
 3580 Fit       0.145886
 3581 Fit       0.143286
 3582 Fit       0.141569
 3583 Fit       0.140507
 3584 Fit       0.139959
 3585 Fit       0.139853
 3586 Fit       0.140175
 3587 Fit       0.140967
 3588 Fit       0.142334
 3589 Fit       0.144456
 3590 Fit       0.144363
 3591 Fit       0.142033
 3592 Fit       0.140419
 3593 Fit       0.139334
 3594 Fit       0.138652
 3595 Fit       0.138297
 3596 Fit       0.138228
 3597 Fit       0.138437
 3598 Fit       0.138949
 3599 Fit       0.139820
 3600 Fit       0.141150
 3601 Fit       0.143093
 3602 Fit       0.140967
 3603 Fit       0.139517
 3604 Fit       0.138518
 3605 Fit       0.137862
 3606 Fit       0.137476
 3607 Fit       0.137317
 3608 Fit       0.137370
 3609 Fit       0.137638
 3610 Fit       0.138153
 3611 Fit       0.138969
 3612 Fit       0.140176
 3613 Fit       0.141910
 3614 Fit       0.140561
 3615 Fit       0.139253
 3616 Fit       0.138332
 3617 Fit       0.137705
 3618 Fit       0.137306
 3619 Fit       0.137097
 3620 Fit       0.137057
 3621 Fit       0.137180
 3622 Fit       0.137480
 3623 Fit       0.137986
 3624 Fit       0.138751
 3625 Fit       0.139851
 3626 Fit       0.140769
 3627 Fit       0.139571
 3628 Fit       0.138714
 3629 Fit       0.138119
 3630 Fit       0.137730
 3631 Fit       0.137510
 3632 Fit       0.137439
 3633 Fit       0.137510
 3634 Fit       0.137730
 3635 Fit       0.138119
 3636 Fit       0.138714
 3637 Fit       0.139571
 3638 Fit       0.140769
 3639 Fit       0.140495
 3640 Fit       0.139683
 3641 Fit       0.139122
 3642 Fit       0.138763
 3643 Fit       0.138574
 3644 Fit       0.138537
 3645 Fit       0.138649
 3646 Fit       0.138920
 3647 Fit       0.139375
 3648 Fit       0.140054
 3649 Fit       0.141018
 3650 Fit       0.142287
 3651 Fit       0.141476
 3652 Fit       0.140931
 3653 Fit       0.140605
 3654 Fit       0.140470
 3655 Fit       0.140514
 3656 Fit       0.140743
 3657 Fit       0.141174
 3658 Fit       0.141845
 3659 Fit       0.144391
 3660 Fit       0.143832
 3661 Fit       0.143534
 3662 Fit       0.143475
 3663 Fit       0.143652
 3664 Fit       0.144077
 3665 Fit       0.144781
 3666 Fit       0.148044
 3667 Fit       0.147950
 3668 Fit       0.148233
 -----------------------------------------------------------------
 Leave Link  602 at Tue Sep 30 16:59:04 2025, MaxMem=  4294967296 cpu:               2.6 elap:               0.2
 (Enter /software/sse/easybuild/prefix/software/Gaussian/16.C.01-avx2-nsc1/g16/l701.exe)
 ... and contract with generalized density number  0.
 Compute integral first derivatives.
 Leave Link  701 at Tue Sep 30 16:59:05 2025, MaxMem=  4294967296 cpu:               2.6 elap:               0.2
 (Enter /software/sse/easybuild/prefix/software/Gaussian/16.C.01-avx2-nsc1/g16/l702.exe)
 L702 exits ... SP integral derivatives will be done elsewhere.
 Leave Link  702 at Tue Sep 30 16:59:05 2025, MaxMem=  4294967296 cpu:               0.3 elap:               0.0
 (Enter /software/sse/easybuild/prefix/software/Gaussian/16.C.01-avx2-nsc1/g16/l703.exe)
 Integral derivatives from FoFJK, PRISM(SPDF).
 Compute integral first derivatives, UseDBF=F ICtDFT=           0.
 Calling FoFJK, ICntrl=      2127 FMM=F ISym2X=1 I1Cent= 0 IOpClX= 0 NMat=1 NMatS=1 NMatT=0.
 FoFJK:  IHMeth= 1 ICntrl=    2127 DoSepK=F KAlg= 0 I1Cent=           0 FoldK=F
 IRaf=         0 NMat=       1 IRICut=       1 DoRegI=T DoRafI=F ISym2E= 1 IDoP0=0 IntGTp=1.
 FoFCou: FMM=F IPFlag=           0 FMFlag=      100000 FMFlg1=         800
         NFxFlg=           0 DoJE=F BraDBF=F KetDBF=F FulRan=T
         wScrn=  0.000000 ICntrl=      2127 IOpCl=  0 I1Cent=           0 NGrid=           0
         NMat0=    1 NMatS0=      1 NMatT0=    0 NMatD0=    1 NMtDS0=    0 NMtDT0=    0
 Petite list used in FoFCou.
 Leave Link  703 at Tue Sep 30 16:59:15 2025, MaxMem=  4294967296 cpu:             163.1 elap:              10.3
 (Enter /software/sse/easybuild/prefix/software/Gaussian/16.C.01-avx2-nsc1/g16/l716.exe)
 Dipole        =-2.82386266D-17 1.33226763D-15 6.71481441D-01
 ***** Axes restored to original set *****
 -------------------------------------------------------------------
 Center     Atomic                   Forces (Hartrees/Bohr)
 Number     Number              X              Y              Z
 -------------------------------------------------------------------
      1        6           0.000000000   -0.000002353    0.000006129
      2        6           0.000000000    0.000002353    0.000006129
      3        7          -0.000000000   -0.000008461   -0.000002812
      4        6           0.000000000    0.000000000   -0.000006922
      5        7          -0.000000000    0.000008461   -0.000002812
      6        1           0.000000000    0.000002116   -0.000001728
      7        1           0.000000000   -0.000002116   -0.000001728
      8        1          -0.000000000    0.000004755   -0.000000771
      9        1           0.000000000   -0.000000000    0.000005284
     10        1          -0.000000000   -0.000004755   -0.000000771
 -------------------------------------------------------------------
 Cartesian Forces:  Max     0.000008461 RMS     0.000003570
 Leave Link  716 at Tue Sep 30 16:59:15 2025, MaxMem=  4294967296 cpu:               0.4 elap:               0.0
 (Enter /software/sse/easybuild/prefix/software/Gaussian/16.C.01-avx2-nsc1/g16/l103.exe)

 GradGradGradGradGradGradGradGradGradGradGradGradGradGradGradGradGradGrad
 Berny optimization.
 FormGI is forming the generalized inverse of G from B-inverse, IUseBI=4.
 Internal  Forces:  Max     0.000005284 RMS     0.000001826
 Search for a local minimum.
 Step number   1 out of a maximum of   55
 All quantities printed in internal units (Hartrees-Bohrs-Radians)
 RMS Force = .18262D-05 SwitMx=.10000D-02 MixMth= 2
 Mixed Optimization -- En-DIIS/RFO-DIIS
 Second derivative matrix not updated -- first step.
 ITU=  0
     Eigenvalues ---    0.02252   0.02330   0.02434   0.02472   0.02691
     Eigenvalues ---    0.02703   0.02896   0.16000   0.16000   0.16000
     Eigenvalues ---    0.16000   0.16000   0.22000   0.22000   0.37446
     Eigenvalues ---    0.37780   0.37780   0.43338   0.47929   0.48527
     Eigenvalues ---    0.48527   0.52976   0.62016   0.62613
 RFO step:  Lambda= 0.00000000D+00 EMin= 2.25243510D-02
 Linear search not attempted -- first point.
 Iteration  1 RMS(Cart)=  0.00000359 RMS(Int)=  0.00000000
 Iteration  2 RMS(Cart)=  0.00000000 RMS(Int)=  0.00000000
 ITry= 1 IFail=0 DXMaxC= 1.28D-05 DCOld= 1.00D+10 DXMaxT= 3.00D-01 DXLimC= 3.00D+00 Rises=F
 ClnCor:  largest displacement from symmetrization is 1.08D-12 for atom     9.
 Variable       Old X    -DE/DX   Delta X   Delta X   Delta X     New X
                                 (Linear)    (Quad)   (Total)
    R1        2.52380  -0.00000   0.00000  -0.00000  -0.00000   2.52380
    R2        2.60765   0.00000   0.00000   0.00001   0.00001   2.60766
    R3        2.01387  -0.00000   0.00000  -0.00001  -0.00001   2.01386
    R4        2.60765   0.00000   0.00000   0.00001   0.00001   2.60766
    R5        2.01387  -0.00000   0.00000  -0.00001  -0.00001   2.01386
    R6        2.47358  -0.00000   0.00000  -0.00000  -0.00000   2.47358
    R7        1.88082   0.00000   0.00000   0.00001   0.00001   1.88083
    R8        2.47358  -0.00000   0.00000  -0.00000  -0.00000   2.47358
    R9        2.01879  -0.00001   0.00000  -0.00001  -0.00001   2.01878
   R10        1.88082   0.00000   0.00000   0.00001   0.00001   1.88083
    A1        1.85894  -0.00000   0.00000  -0.00000  -0.00000   1.85894
    A2        2.28895   0.00000   0.00000  -0.00000  -0.00000   2.28895
    A3        2.13529   0.00000   0.00000   0.00001   0.00001   2.13530
    A4        1.85894  -0.00000   0.00000  -0.00000  -0.00000   1.85894
    A5        2.28895   0.00000   0.00000  -0.00000  -0.00000   2.28895
    A6        2.13529   0.00000   0.00000   0.00001   0.00001   2.13530
    A7        1.90975   0.00000   0.00000   0.00001   0.00001   1.90976
    A8        2.19759  -0.00000   0.00000  -0.00001  -0.00001   2.19758
    A9        2.17585  -0.00000   0.00000   0.00000   0.00000   2.17585
   A10        1.88739  -0.00000   0.00000  -0.00001  -0.00001   1.88738
   A11        2.19790   0.00000   0.00000   0.00000   0.00000   2.19790
   A12        2.19790   0.00000   0.00000   0.00000   0.00000   2.19790
   A13        1.90975   0.00000   0.00000   0.00001   0.00001   1.90976
   A14        2.19759  -0.00000   0.00000  -0.00001  -0.00001   2.19758
   A15        2.17585  -0.00000   0.00000   0.00000   0.00000   2.17585
    D1       -0.00000   0.00000   0.00000   0.00000   0.00000   0.00000
    D2        3.14159  -0.00000   0.00000   0.00000   0.00000   3.14159
    D3        3.14159   0.00000   0.00000   0.00000   0.00000   3.14159
    D4        0.00000   0.00000   0.00000   0.00000  -0.00000   0.00000
    D5       -0.00000   0.00000   0.00000   0.00000   0.00000   0.00000
    D6        3.14159   0.00000   0.00000   0.00000   0.00000   3.14159
    D7        3.14159   0.00000   0.00000   0.00000   0.00000   3.14159
    D8       -0.00000  -0.00000   0.00000   0.00000   0.00000   0.00000
    D9        0.00000  -0.00000   0.00000  -0.00000   0.00000   0.00000
   D10        3.14159  -0.00000   0.00000  -0.00000   0.00000   3.14159
   D11        3.14159  -0.00000   0.00000  -0.00000   0.00000   3.14159
   D12        0.00000  -0.00000   0.00000  -0.00000   0.00000   0.00000
   D13       -0.00000   0.00000   0.00000   0.00000   0.00000   0.00000
   D14        3.14159   0.00000   0.00000   0.00000   0.00000   3.14159
   D15        3.14159   0.00000   0.00000   0.00000   0.00000   3.14159
   D16        0.00000  -0.00000   0.00000  -0.00000   0.00000   0.00000
   D17        0.00000  -0.00000   0.00000  -0.00000   0.00000   0.00000
   D18        3.14159  -0.00000   0.00000  -0.00000   0.00000   3.14159
   D19        3.14159  -0.00000   0.00000  -0.00000   0.00000   3.14159
   D20       -0.00000   0.00000   0.00000   0.00000   0.00000   0.00000
         Item               Value     Threshold  Converged?
 Maximum Force            0.000005     0.000015     YES
 RMS     Force            0.000002     0.000010     YES
 Maximum Displacement     0.000013     0.000060     YES
 RMS     Displacement     0.000004     0.000040     YES
 Predicted change in Energy=-2.012723D-10
 Optimization completed.
    -- Stationary point found.
                           ----------------------------
                           !   Optimized Parameters   !
                           ! (Angstroms and Degrees)  !
 --------------------------                            --------------------------
 ! Name  Definition              Value          Derivative Info.                !
 --------------------------------------------------------------------------------
 ! R1    R(1,2)                  1.3355         -DE/DX =    0.0                 !
 ! R2    R(1,5)                  1.3799         -DE/DX =    0.0                 !
 ! R3    R(1,6)                  1.0657         -DE/DX =    0.0                 !
 ! R4    R(2,3)                  1.3799         -DE/DX =    0.0                 !
 ! R5    R(2,7)                  1.0657         -DE/DX =    0.0                 !
 ! R6    R(3,4)                  1.309          -DE/DX =    0.0                 !
 ! R7    R(3,8)                  0.9953         -DE/DX =    0.0                 !
 ! R8    R(4,5)                  1.309          -DE/DX =    0.0                 !
 ! R9    R(4,9)                  1.0683         -DE/DX =    0.0                 !
 ! R10   R(5,10)                 0.9953         -DE/DX =    0.0                 !
 ! A1    A(2,1,5)              106.5097         -DE/DX =    0.0                 !
 ! A2    A(2,1,6)              131.1471         -DE/DX =    0.0                 !
 ! A3    A(5,1,6)              122.3432         -DE/DX =    0.0                 !
 ! A4    A(1,2,3)              106.5097         -DE/DX =    0.0                 !
 ! A5    A(1,2,7)              131.1471         -DE/DX =    0.0                 !
 ! A6    A(3,2,7)              122.3432         -DE/DX =    0.0                 !
 ! A7    A(2,3,4)              109.4206         -DE/DX =    0.0                 !
 ! A8    A(2,3,8)              125.9124         -DE/DX =    0.0                 !
 ! A9    A(4,3,8)              124.667          -DE/DX =    0.0                 !
 ! A10   A(3,4,5)              108.1395         -DE/DX =    0.0                 !
 ! A11   A(3,4,9)              125.9302         -DE/DX =    0.0                 !
 ! A12   A(5,4,9)              125.9302         -DE/DX =    0.0                 !
 ! A13   A(1,5,4)              109.4206         -DE/DX =    0.0                 !
 ! A14   A(1,5,10)             125.9124         -DE/DX =    0.0                 !
 ! A15   A(4,5,10)             124.667          -DE/DX =    0.0                 !
 ! D1    D(5,1,2,3)              0.0            -DE/DX =    0.0                 !
 ! D2    D(5,1,2,7)            180.0            -DE/DX =    0.0                 !
 ! D3    D(6,1,2,3)            180.0            -DE/DX =    0.0                 !
 ! D4    D(6,1,2,7)              0.0            -DE/DX =    0.0                 !
 ! D5    D(2,1,5,4)              0.0            -DE/DX =    0.0                 !
 ! D6    D(2,1,5,10)           180.0            -DE/DX =    0.0                 !
 ! D7    D(6,1,5,4)            180.0            -DE/DX =    0.0                 !
 ! D8    D(6,1,5,10)             0.0            -DE/DX =    0.0                 !
 ! D9    D(1,2,3,4)              0.0            -DE/DX =    0.0                 !
 ! D10   D(1,2,3,8)            180.0            -DE/DX =    0.0                 !
 ! D11   D(7,2,3,4)            180.0            -DE/DX =    0.0                 !
 ! D12   D(7,2,3,8)              0.0            -DE/DX =    0.0                 !
 ! D13   D(2,3,4,5)              0.0            -DE/DX =    0.0                 !
 ! D14   D(2,3,4,9)            180.0            -DE/DX =    0.0                 !
 ! D15   D(8,3,4,5)            180.0            -DE/DX =    0.0                 !
 ! D16   D(8,3,4,9)              0.0            -DE/DX =    0.0                 !
 ! D17   D(3,4,5,1)              0.0            -DE/DX =    0.0                 !
 ! D18   D(3,4,5,10)           180.0            -DE/DX =    0.0                 !
 ! D19   D(9,4,5,1)            180.0            -DE/DX =    0.0                 !
 ! D20   D(9,4,5,10)             0.0            -DE/DX =    0.0                 !
 --------------------------------------------------------------------------------
 Lowest energy point so far.  Saving SCF results.
 Largest change from initial coordinates is atom    5       0.000 Angstoms.
 GradGradGradGradGradGradGradGradGradGradGradGradGradGradGradGradGradGrad

 Leave Link  103 at Tue Sep 30 16:59:15 2025, MaxMem=  4294967296 cpu:               2.2 elap:               0.2
 (Enter /software/sse/easybuild/prefix/software/Gaussian/16.C.01-avx2-nsc1/g16/l202.exe)
                          Input orientation:                          
 ---------------------------------------------------------------------
 Center     Atomic      Atomic             Coordinates (Angstroms)
 Number     Number       Type             X           Y           Z
 ---------------------------------------------------------------------
      1          6           0        0.000000   -0.667770    0.971100
      2          6           0       -0.000000    0.667770    0.971100
      3          7           0       -0.000000    1.059910   -0.351920
      4          6           0        0.000000   -0.000000   -1.120020
      5          7           0        0.000000   -1.059910   -0.351920
      6          1           0        0.000000   -1.368990    1.773590
      7          1           0       -0.000000    1.368990    1.773590
      8          1           0       -0.000000    1.998670   -0.682560
      9          1           0        0.000000   -0.000000   -2.188320
     10          1           0        0.000000   -1.998670   -0.682560
 ---------------------------------------------------------------------
                    Distance matrix (angstroms):
                    1          2          3          4          5
     1  C    0.000000
     2  C    1.335540   0.000000
     3  N    2.176065   1.379911   0.000000
     4  C    2.195154   2.195154   1.308964   0.000000
     5  N    1.379911   2.176065   2.119820   1.308964   0.000000
     6  H    1.065692   2.189151   3.227592   3.201111   2.147865
     7  H    2.189151   1.065692   2.147865   3.201111   3.227592
     8  H    3.137594   2.122707   0.995285   2.045985   3.076400
     9  H    3.229218   3.229218   2.120324   1.068300   2.120324
    10  H    2.122707   3.137594   3.076400   2.045985   0.995285
                    6          7          8          9         10
     6  H    0.000000
     7  H    2.737980   0.000000
     8  H    4.168190   2.535581   0.000000
     9  H    4.191761   4.191761   2.502398   0.000000
    10  H    2.535581   4.168190   3.997340   2.502398   0.000000
 Stoichiometry    C3H5N2(1+)
 Framework group  C2V[C2(CH),SGV(C2H4N2)]
 Deg. of freedom     9
 Full point group                 C2V     NOp   4
 RotChk:  IX=0 Diff= 1.58D-15
 Largest Abelian subgroup         C2V     NOp   4
 Largest concise Abelian subgroup C2      NOp   2
                         Standard orientation:                         
 ---------------------------------------------------------------------
 Center     Atomic      Atomic             Coordinates (Angstroms)
 Number     Number       Type             X           Y           Z
 ---------------------------------------------------------------------
      1          6           0        0.000000    0.667770   -0.971102
      2          6           0       -0.000000   -0.667770   -0.971102
      3          7           0        0.000000   -1.059910    0.351918
      4          6           0        0.000000   -0.000000    1.120018
      5          7           0        0.000000    1.059910    0.351918
      6          1           0        0.000000    1.368990   -1.773592
      7          1           0       -0.000000   -1.368990   -1.773592
      8          1           0        0.000000   -1.998670    0.682558
      9          1           0        0.000000   -0.000000    2.188318
     10          1           0        0.000000    1.998670    0.682558
 ---------------------------------------------------------------------
 Rotational constants (GHZ):           9.4888261           9.3599374           4.7119705
 Leave Link  202 at Tue Sep 30 16:59:15 2025, MaxMem=  4294967296 cpu:               0.1 elap:               0.0
 (Enter /software/sse/easybuild/prefix/software/Gaussian/16.C.01-avx2-nsc1/g16/l9999.exe)

 Test job not archived.
 1\1\NSC-N1288\FOpt\RHF\Aug-CC-pVTZ\C3H5N2(1+)\X_DAVVA\30-Sep-2025\0\\#
 P HF/aug-cc-pvtz Opt=tight Pop=(MK,Hirshfeld) iop(6/33=2) iop(6/42=6) 
 maxdisk=128GB\\imidazolium\\1,1\C,0.,-0.66777,0.9711\C,0.,0.66777,0.97
 11\N,0.,1.05991,-0.35192\C,0.,0.,-1.12002\N,0.,-1.05991,-0.35192\H,0.,
 -1.36899,1.77359\H,0.,1.36899,1.77359\H,0.,1.99867,-0.68256\H,0.,0.,-2
 .18832\H,0.,-1.99867,-0.68256\\Version=ES64L-G16RevC.01\State=1-A1\HF=
 -225.2817473\RMSD=4.321e-09\RMSF=3.570e-06\Dipole=0.,0.,-0.6714814\Qua
 drupole=-7.5784457,4.9955541,2.5828916,0.,0.,0.\PG=C02V [C2(C1H1),SGV(
 C2H4N2)]\\@


 HE THAT WALD REACHE THE SWEITE ROSE
 SULD NOW AND THEN BE SCRATCHED WT THE SCHARPE BREERES.
 -- PROVERBS AND REASONS OF THE YEAR 1585
           AS REPRINTED IN PAISLEY MAGAZINE 1828.
 Job cpu time:       0 days  0 hours  5 minutes 38.5 seconds.
 Elapsed time:       0 days  0 hours  0 minutes 23.4 seconds.
 File lengths (MBytes):  RWF=     49 Int=      0 D2E=      0 Chk=     16 Scr=      1
 Normal termination of Gaussian 16 at Tue Sep 30 16:59:15 2025.
