 Entering Gaussian System, Link 0=/software/sse/easybuild/prefix/software/Gaussian/16.C.01-avx2-nsc1/g16/g16.orig
 Input=imidazolium.wrap
 Output=imidazolium.log
 Initial command:
 /software/sse/easybuild/prefix/software/Gaussian/16.C.01-avx2-nsc1/g16/l1.exe "/scratch/local/Gau-2647024.inp" -scrdir="/scratch/local/"
 Entering Link 1 = /software/sse/easybuild/prefix/software/Gaussian/16.C.01-avx2-nsc1/g16/l1.exe PID=   2647025.
  
 Copyright (c) 1988-2019, Gaussian, Inc.  All Rights Reserved.
  
 This is part of the Gaussian(R) 16 program.  It is based on
 the Gaussian(R) 09 system (copyright 2009, Gaussian, Inc.),
 the Gaussian(R) 03 system (copyright 2003, Gaussian, Inc.),
 the Gaussian(R) 98 system (copyright 1998, Gaussian, Inc.),
 the Gaussian(R) 94 system (copyright 1995, Gaussian, Inc.),
 the Gaussian 92(TM) system (copyright 1992, Gaussian, Inc.),
 the Gaussian 90(TM) system (copyright 1990, Gaussian, Inc.),
 the Gaussian 88(TM) system (copyright 1988, Gaussian, Inc.),
 the Gaussian 86(TM) system (copyright 1986, Carnegie Mellon
 University), and the Gaussian 82(TM) system (copyright 1983,
 Carnegie Mellon University). Gaussian is a federally registered
 trademark of Gaussian, Inc.
  
 This software contains proprietary and confidential information,
 including trade secrets, belonging to Gaussian, Inc.
  
 This software is provided under written license and may be
 used, copied, transmitted, or stored only in accord with that
 written license.
  
 The following legend is applicable only to US Government
 contracts under FAR:
  
                    RESTRICTED RIGHTS LEGEND
  
 Use, reproduction and disclosure by the US Government is
 subject to restrictions as set forth in subparagraphs (a)
 and (c) of the Commercial Computer Software - Restricted
 Rights clause in FAR 52.227-19.
  
 Gaussian, Inc.
 340 Quinnipiac St., Bldg. 40, Wallingford CT 06492
  
  
 ---------------------------------------------------------------
 Warning -- This program may not be used in any manner that
 competes with the business of Gaussian, Inc. or will provide
 assistance to any competitor of Gaussian, Inc.  The licensee
 of this program is prohibited from giving any competitor of
 Gaussian, Inc. access to this program.  By using this program,
 the user acknowledges that Gaussian, Inc. is engaged in the
 business of creating and licensing software in the field of
 computational chemistry and represents and warrants to the
 licensee that it is not a competitor of Gaussian, Inc. and that
 it will not use this program in any manner prohibited above.
 ---------------------------------------------------------------
  

 Cite this work as:
 Gaussian 16, Revision C.01,
 M. J. Frisch, G. W. Trucks, H. B. Schlegel, G. E. Scuseria, 
 M. A. Robb, J. R. Cheeseman, G. Scalmani, V. Barone, 
 G. A. Petersson, H. Nakatsuji, X. Li, M. Caricato, A. V. Marenich, 
 J. Bloino, B. G. Janesko, R. Gomperts, B. Mennucci, H. P. Hratchian, 
 J. V. Ortiz, A. F. Izmaylov, J. L. Sonnenberg, D. Williams-Young, 
 F. Ding, F. Lipparini, F. Egidi, J. Goings, B. Peng, A. Petrone, 
 T. Henderson, D. Ranasinghe, V. G. Zakrzewski, J. Gao, N. Rega, 
 G. Zheng, W. Liang, M. Hada, M. Ehara, K. Toyota, R. Fukuda, 
 J. Hasegawa, M. Ishida, T. Nakajima, Y. Honda, O. Kitao, H. Nakai, 
 T. Vreven, K. Throssell, J. A. Montgomery, Jr., J. E. Peralta, 
 F. Ogliaro, M. J. Bearpark, J. J. Heyd, E. N. Brothers, K. N. Kudin, 
 V. N. Staroverov, T. A. Keith, R. Kobayashi, J. Normand, 
 K. Raghavachari, A. P. Rendell, J. C. Burant, S. S. Iyengar, 
 J. Tomasi, M. Cossi, J. M. Millam, M. Klene, C. Adamo, R. Cammi, 
 J. W. Ochterski, R. L. Martin, K. Morokuma, O. Farkas, 
 J. B. Foresman, and D. J. Fox, Gaussian, Inc., Wallingford CT, 2019.
 
 ******************************************
 Gaussian 16:  ES64L-G16RevC.01  3-Jul-2019
                28-Sep-2025 
 ******************************************
 %mem=12000MB
 %nprocshared=8
 Will use up to    8 processors via shared memory.
 %chk=water19.chk
 ----------------------------------------------------------------------
 #P HF/aug-cc-pvtz Opt=(Redundant, calcall, verytight) symm=(loose,foll
 ow) Pop=(MK,Hirshfeld,ReadRadii) iop(6/33=2) iop(6/42=6) Polar Freq ma
 xdisk=128GB
 ----------------------------------------------------------------------
 1/7=1,10=4,18=20,19=15,38=1/1,3;
 2/9=110,12=2,17=4,18=3,40=1/2;
 3/5=16,6=1,7=10,11=9,25=1,30=1,71=2,140=1/1,2,3;
 4//1;
 5/5=2,38=5,98=1/2;
 8/6=4,10=90,11=11/1;
 11/6=1,8=1,9=11,15=111,16=1/1,2,10;
 10/6=1/2;
 6/7=2,8=2,9=2,10=2,15=8,18=1,20=101,28=1,33=2,42=6,79=1/1,2;
 7/10=1,25=1/1,2,3,16;
 1/7=1,10=4,18=20,19=15/3(3);
 2/9=110,15=5/2;
 7/8=1,9=1,25=1,44=-1/16;
 99//99;
 2/9=110,15=5/2;
 3/5=16,6=1,7=10,11=9,25=1,30=1,71=2,140=1/1,2,3;
 4/5=5,16=3,69=1/1;
 5/5=2,38=5,98=1/2;
 8/6=4,10=90,11=11/1;
 11/6=1,8=1,9=11,15=111,16=1/1,2,10;
 10/6=1/2;
 7/10=1,25=1/1,2,3,16;
 1/7=1,10=4,18=20,19=15/3(-8);
 2/9=110,15=5/2;
 6/7=2,8=2,9=2,10=2,15=8,18=1,19=2,20=101,28=1,33=2,42=6,79=1/1,2;
 7/8=1,9=1,25=1,44=-1/16;
 99//99;
 Leave Link    1 at Sun Sep 28 20:46:07 2025, MaxMem=  1572864000 cpu:               0.8 elap:               0.1
 (Enter /software/sse/easybuild/prefix/software/Gaussian/16.C.01-avx2-nsc1/g16/l101.exe)
 -----------
 imidazolium
 -----------
 Symbolic Z-matrix:
 Charge =  1 Multiplicity = 1
 C                     1.15275   0.32746   0. 
 C                     0.71237  -0.96339   0. 
 N                    -0.68071  -0.90791   0. 
 C                    -1.09068   0.37184   0. 
 N                     0.01578   1.13465   0. 
 H                     2.14593   0.73188   0. 
 H                     1.25177  -1.89052   0. 
 H                    -1.2935   -1.70883   0. 
 H                    -2.10665   0.71838   0. 
 H                     0.02001   2.14318   0. 
 
 ITRead=  0  0  0  0  0  0  0  0  0  0
 MicOpt= -1 -1 -1 -1 -1 -1 -1 -1 -1 -1
 NAtoms=     10 NQM=       10 NQMF=       0 NMMI=      0 NMMIF=      0
                NMic=       0 NMicF=      0.
                    Isotopes and Nuclear Properties:
 (Nuclear quadrupole moments (NQMom) in fm**2, nuclear magnetic moments (NMagM)
  in nuclear magnetons)

  Atom         1           2           3           4           5           6           7           8           9          10
 IAtWgt=          12          12          14          12          14           1           1           1           1           1
 AtmWgt=  12.0000000  12.0000000  14.0030740  12.0000000  14.0030740   1.0078250   1.0078250   1.0078250   1.0078250   1.0078250
 NucSpn=           0           0           2           0           2           1           1           1           1           1
 AtZEff=  -0.0000000  -0.0000000  -0.0000000  -0.0000000  -0.0000000  -0.0000000  -0.0000000  -0.0000000  -0.0000000  -0.0000000
 NQMom=    0.0000000   0.0000000   2.0440000   0.0000000   2.0440000   0.0000000   0.0000000   0.0000000   0.0000000   0.0000000
 NMagM=    0.0000000   0.0000000   0.4037610   0.0000000   0.4037610   2.7928460   2.7928460   2.7928460   2.7928460   2.7928460
 AtZNuc=   6.0000000   6.0000000   7.0000000   6.0000000   7.0000000   1.0000000   1.0000000   1.0000000   1.0000000   1.0000000
 Leave Link  101 at Sun Sep 28 20:46:07 2025, MaxMem=  1572864000 cpu:               1.9 elap:               0.3
 (Enter /software/sse/easybuild/prefix/software/Gaussian/16.C.01-avx2-nsc1/g16/l103.exe)

 GradGradGradGradGradGradGradGradGradGradGradGradGradGradGradGradGradGrad
 Berny optimization.
 Initialization pass.
                           ----------------------------
                           !    Initial Parameters    !
                           ! (Angstroms and Degrees)  !
 --------------------------                            --------------------------
 ! Name  Definition              Value          Derivative Info.                !
 --------------------------------------------------------------------------------
 ! R1    R(1,2)                  1.3639         calculate D2E/DX2 analytically  !
 ! R2    R(1,5)                  1.3944         calculate D2E/DX2 analytically  !
 ! R3    R(1,6)                  1.0724         calculate D2E/DX2 analytically  !
 ! R4    R(2,3)                  1.3942         calculate D2E/DX2 analytically  !
 ! R5    R(2,7)                  1.0726         calculate D2E/DX2 analytically  !
 ! R6    R(3,4)                  1.3438         calculate D2E/DX2 analytically  !
 ! R7    R(3,8)                  1.0085         calculate D2E/DX2 analytically  !
 ! R8    R(4,5)                  1.3439         calculate D2E/DX2 analytically  !
 ! R9    R(4,9)                  1.0734         calculate D2E/DX2 analytically  !
 ! R10   R(5,10)                 1.0085         calculate D2E/DX2 analytically  !
 ! A1    A(2,1,5)              106.5352         calculate D2E/DX2 analytically  !
 ! A2    A(2,1,6)              130.9938         calculate D2E/DX2 analytically  !
 ! A3    A(5,1,6)              122.471          calculate D2E/DX2 analytically  !
 ! A4    A(1,2,3)              106.5573         calculate D2E/DX2 analytically  !
 ! A5    A(1,2,7)              130.9714         calculate D2E/DX2 analytically  !
 ! A6    A(3,2,7)              122.4714         calculate D2E/DX2 analytically  !
 ! A7    A(2,3,4)              110.0436         calculate D2E/DX2 analytically  !
 ! A8    A(2,3,8)              125.1397         calculate D2E/DX2 analytically  !
 ! A9    A(4,3,8)              124.8167         calculate D2E/DX2 analytically  !
 ! A10   A(3,4,5)              106.8197         calculate D2E/DX2 analytically  !
 ! A11   A(3,4,9)              126.5971         calculate D2E/DX2 analytically  !
 ! A12   A(5,4,9)              126.5832         calculate D2E/DX2 analytically  !
 ! A13   A(1,5,4)              110.0442         calculate D2E/DX2 analytically  !
 ! A14   A(1,5,10)             125.1324         calculate D2E/DX2 analytically  !
 ! A15   A(4,5,10)             124.8233         calculate D2E/DX2 analytically  !
 ! D1    D(5,1,2,3)              0.0            calculate D2E/DX2 analytically  !
 ! D2    D(5,1,2,7)            180.0            calculate D2E/DX2 analytically  !
 ! D3    D(6,1,2,3)            180.0            calculate D2E/DX2 analytically  !
 ! D4    D(6,1,2,7)              0.0            calculate D2E/DX2 analytically  !
 ! D5    D(2,1,5,4)              0.0            calculate D2E/DX2 analytically  !
 ! D6    D(2,1,5,10)           180.0            calculate D2E/DX2 analytically  !
 ! D7    D(6,1,5,4)            180.0            calculate D2E/DX2 analytically  !
 ! D8    D(6,1,5,10)             0.0            calculate D2E/DX2 analytically  !
 ! D9    D(1,2,3,4)              0.0            calculate D2E/DX2 analytically  !
 ! D10   D(1,2,3,8)            180.0            calculate D2E/DX2 analytically  !
 ! D11   D(7,2,3,4)            180.0            calculate D2E/DX2 analytically  !
 ! D12   D(7,2,3,8)              0.0            calculate D2E/DX2 analytically  !
 ! D13   D(2,3,4,5)              0.0            calculate D2E/DX2 analytically  !
 ! D14   D(2,3,4,9)            180.0            calculate D2E/DX2 analytically  !
 ! D15   D(8,3,4,5)            180.0            calculate D2E/DX2 analytically  !
 ! D16   D(8,3,4,9)              0.0            calculate D2E/DX2 analytically  !
 ! D17   D(3,4,5,1)              0.0            calculate D2E/DX2 analytically  !
 ! D18   D(3,4,5,10)           180.0            calculate D2E/DX2 analytically  !
 ! D19   D(9,4,5,1)            180.0            calculate D2E/DX2 analytically  !
 ! D20   D(9,4,5,10)             0.0            calculate D2E/DX2 analytically  !
 --------------------------------------------------------------------------------
 Trust Radius=3.00D-01 FncErr=1.00D-07 GrdErr=1.00D-07 EigMax=2.50D+02 EigMin=1.00D-04
 Number of steps in this run=     55 maximum allowed number of steps=    100.
 GradGradGradGradGradGradGradGradGradGradGradGradGradGradGradGradGradGrad

 Leave Link  103 at Sun Sep 28 20:46:07 2025, MaxMem=  1572864000 cpu:               0.1 elap:               0.0
 (Enter /software/sse/easybuild/prefix/software/Gaussian/16.C.01-avx2-nsc1/g16/l202.exe)
                          Input orientation:                          
 ---------------------------------------------------------------------
 Center     Atomic      Atomic             Coordinates (Angstroms)
 Number     Number       Type             X           Y           Z
 ---------------------------------------------------------------------
      1          6           0        1.152755    0.327457    0.000000
      2          6           0        0.712367   -0.963389    0.000000
      3          7           0       -0.680706   -0.907913    0.000000
      4          6           0       -1.090683    0.371841    0.000000
      5          7           0        0.015781    1.134652    0.000000
      6          1           0        2.145934    0.731879    0.000000
      7          1           0        1.251771   -1.890516    0.000000
      8          1           0       -1.293497   -1.708826    0.000000
      9          1           0       -2.106646    0.718375    0.000000
     10          1           0        0.020014    2.143181    0.000000
 ---------------------------------------------------------------------
                    Distance matrix (angstroms):
                    1          2          3          4          5
     1  C    0.000000
     2  C    1.363900   0.000000
     3  N    2.210818   1.394177   0.000000
     4  C    2.243877   2.243619   1.343820   0.000000
     5  N    1.394372   2.210658   2.158047   1.343928   0.000000
     6  H    1.072363   2.220146   3.267845   3.256581   2.167897
     7  H    2.220182   1.072624   2.167942   3.256586   3.267922
     8  H    3.182860   2.139898   1.008452   2.090529   3.130428
     9  H    3.282760   3.282555   2.162897   1.073437   2.162865
    10  H    2.140084   3.182787   3.130525   2.090764   1.008538
                    6          7          8          9         10
     6  H    0.000000
     7  H    2.770647   0.000000
     8  H    4.217431   2.551744   0.000000
     9  H    4.252602   4.252679   2.559789   0.000000
    10  H    2.551727   4.217575   4.069800   2.559835   0.000000
 Stoichiometry    C3H5N2(1+)
 Framework group  CS[SG(C3H5N2)]
 Deg. of freedom    17
 Full point group                 CS      NOp   2
 Largest Abelian subgroup         CS      NOp   2
 Largest concise Abelian subgroup C1      NOp   1
                         Standard orientation:                         
 ---------------------------------------------------------------------
 Center     Atomic      Atomic             Coordinates (Angstroms)
 Number     Number       Type             X           Y           Z
 ---------------------------------------------------------------------
      1          6           0        0.725399   -0.953583    0.000000
      2          6           0        1.147687    0.343297    0.000000
      3          7           0        0.000000    1.134841    0.000000
      4          6           0       -1.095889    0.357101    0.000000
      5          7           0       -0.668495   -0.917056    0.000000
      6          1           0        1.277224   -1.873067    0.000000
      7          1           0        2.135516    0.761286    0.000000
      8          1           0       -0.009613    2.143247    0.000000
      9          1           0       -2.116557    0.689525    0.000000
     10          1           0       -1.270284   -1.726377    0.000000
 ---------------------------------------------------------------------
 Rotational constants (GHZ):           9.1741631           9.0272997           4.5500694
 Leave Link  202 at Sun Sep 28 20:46:07 2025, MaxMem=  1572864000 cpu:               0.0 elap:               0.0
 (Enter /software/sse/easybuild/prefix/software/Gaussian/16.C.01-avx2-nsc1/g16/l301.exe)
 Standard basis: Aug-CC-pVTZ (5D, 7F)
 Ernie: Thresh=  0.10000D-02 Tol=  0.10000D-05 Strict=F.
 Ernie:  15 primitive shells out of 205 were deleted.
 There are   275 symmetry adapted cartesian basis functions of A'  symmetry.
 There are   125 symmetry adapted cartesian basis functions of A"  symmetry.
 There are   230 symmetry adapted basis functions of A'  symmetry.
 There are   115 symmetry adapted basis functions of A"  symmetry.
   345 basis functions,   495 primitive gaussians,   400 cartesian basis functions
    18 alpha electrons       18 beta electrons
       nuclear repulsion energy       172.1228384431 Hartrees.
 IExCor=    0 DFT=F Ex=HF Corr=None ExCW=0 ScaHFX=  1.000000
 ScaDFX=  1.000000  1.000000  1.000000  1.000000 ScalE2=  1.000000  1.000000
 IRadAn=      5 IRanWt=     -1 IRanGd=            0 ICorTp=0 IEmpDi=  4
 NAtoms=   10 NActive=   10 NUniq=   10 SFac= 1.00D+00 NAtFMM=   60 NAOKFM=F Big=F
 Integral buffers will be    131072 words long.
 Raffenetti 1 integral format.
 Two-electron integral symmetry is turned on.
 Leave Link  301 at Sun Sep 28 20:46:07 2025, MaxMem=  1572864000 cpu:               0.4 elap:               0.1
 (Enter /software/sse/easybuild/prefix/software/Gaussian/16.C.01-avx2-nsc1/g16/l302.exe)
 NPDir=0 NMtPBC=     1 NCelOv=     1 NCel=       1 NClECP=     1 NCelD=      1
         NCelK=      1 NCelE2=     1 NClLst=     1 CellRange=     0.0.
 One-electron integrals computed using PRISM.
 One-electron integral symmetry used in STVInt
 NBasis=   345 RedAO= T EigKep=  4.99D-06  NBF=   230   115
 NBsUse=   345 1.00D-06 EigRej= -1.00D+00 NBFU=   230   115
 Leave Link  302 at Sun Sep 28 20:46:08 2025, MaxMem=  1572864000 cpu:               1.3 elap:               0.2
 (Enter /software/sse/easybuild/prefix/software/Gaussian/16.C.01-avx2-nsc1/g16/l303.exe)
 DipDrv:  MaxL=1.
 Leave Link  303 at Sun Sep 28 20:46:08 2025, MaxMem=  1572864000 cpu:               0.3 elap:               0.1
 (Enter /software/sse/easybuild/prefix/software/Gaussian/16.C.01-avx2-nsc1/g16/l401.exe)
 ExpMin= 2.53D-02 ExpMax= 1.14D+04 ExpMxC= 3.89D+02 IAcc=3 IRadAn=         5 AccDes= 0.00D+00
 Harris functional with IExCor=  205 and IRadAn=       5 diagonalized for initial guess.
 HarFok:  IExCor=  205 AccDes= 0.00D+00 IRadAn=         5 IDoV= 1 UseB2=F ITyADJ=14
 ICtDFT=  3500011 ScaDFX=  1.000000  1.000000  1.000000  1.000000
 FoFCou: FMM=F IPFlag=           0 FMFlag=      100000 FMFlg1=           0
         NFxFlg=           0 DoJE=T BraDBF=F KetDBF=T FulRan=T
         wScrn=  0.000000 ICntrl=       500 IOpCl=  0 I1Cent=   200000004 NGrid=           0
         NMat0=    1 NMatS0=      1 NMatT0=    0 NMatD0=    1 NMtDS0=    0 NMtDT0=    0
 Petite list used in FoFCou.
 Harris En= -225.554722492110    
 JPrj=0 DoOrth=F DoCkMO=F.
 Initial guess orbital symmetries:
       Occupied  (A') (A') (A') (A') (A') (A') (A') (A') (A') (A')
                 (A') (A') (A') (A') (A') (A") (A") (A")
       Virtual   (A") (A") (A') (A') (A') (A') (A') (A') (A") (A')
                 (A") (A') (A") (A') (A') (A') (A') (A') (A') (A')
                 (A') (A') (A") (A") (A') (A') (A') (A") (A') (A')
                 (A') (A') (A') (A') (A") (A') (A") (A") (A') (A')
                 (A') (A") (A") (A') (A") (A') (A') (A') (A') (A')
                 (A') (A") (A") (A') (A') (A") (A') (A") (A') (A')
                 (A') (A') (A') (A') (A") (A') (A') (A') (A") (A')
                 (A') (A") (A') (A") (A") (A') (A") (A') (A") (A')
                 (A') (A') (A') (A') (A') (A") (A') (A') (A") (A')
                 (A") (A') (A") (A") (A') (A') (A') (A') (A") (A')
                 (A") (A") (A') (A') (A") (A') (A') (A') (A") (A")
                 (A') (A") (A') (A') (A") (A") (A') (A') (A') (A')
                 (A') (A") (A') (A') (A') (A") (A") (A') (A') (A")
                 (A') (A") (A") (A') (A') (A') (A') (A") (A") (A")
                 (A') (A') (A') (A') (A") (A') (A') (A") (A') (A')
                 (A") (A") (A') (A") (A") (A') (A') (A') (A') (A')
                 (A") (A') (A') (A") (A') (A') (A') (A') (A") (A')
                 (A") (A") (A') (A') (A") (A') (A") (A') (A') (A')
                 (A') (A") (A') (A') (A") (A') (A") (A") (A') (A')
                 (A') (A') (A") (A') (A') (A") (A') (A") (A') (A')
                 (A") (A') (A') (A') (A") (A") (A') (A') (A") (A')
                 (A') (A") (A') (A") (A') (A") (A") (A') (A") (A')
                 (A') (A") (A") (A') (A') (A') (A') (A") (A") (A")
                 (A') (A') (A') (A') (A") (A') (A") (A') (A') (A')
                 (A") (A') (A") (A') (A') (A') (A') (A") (A') (A")
                 (A") (A") (A') (A") (A") (A') (A') (A') (A') (A")
                 (A') (A') (A') (A') (A") (A') (A") (A') (A") (A')
                 (A") (A') (A') (A") (A') (A') (A') (A') (A") (A')
                 (A") (A") (A') (A") (A') (A") (A") (A') (A") (A')
                 (A') (A') (A") (A") (A') (A") (A') (A') (A") (A')
                 (A') (A') (A") (A') (A") (A') (A') (A") (A') (A')
                 (A') (A') (A') (A') (A') (A') (A') (A') (A') (A')
                 (A') (A') (A') (A') (A') (A') (A')
 The electronic state of the initial guess is 1-A'.
 Leave Link  401 at Sun Sep 28 20:46:08 2025, MaxMem=  1572864000 cpu:               3.8 elap:               0.5
 (Enter /software/sse/easybuild/prefix/software/Gaussian/16.C.01-avx2-nsc1/g16/l502.exe)
 Integral symmetry usage will be decided dynamically.
 Closed shell SCF:
 Using DIIS extrapolation, IDIIS=  1040.
 NGot=  1572864000 LenX=  1572536390 LenY=  1572375949
 Requested convergence on RMS density matrix=1.00D-08 within 128 cycles.
 Requested convergence on MAX density matrix=1.00D-06.
 Requested convergence on             energy=1.00D-06.
 No special actions if energy rises.
 Fock matrices will be formed incrementally for  20 cycles.

 Cycle   1  Pass 1  IDiag  1:
 FoFJK:  IHMeth= 1 ICntrl=       0 DoSepK=F KAlg= 0 I1Cent=           0 FoldK=F
 IRaf= 990000000 NMat=       1 IRICut=       1 DoRegI=T DoRafI=F ISym2E= 1 IDoP0=0 IntGTp=1.
 FoFCou: FMM=F IPFlag=           0 FMFlag=      100000 FMFlg1=           0
         NFxFlg=           0 DoJE=F BraDBF=F KetDBF=F FulRan=T
         wScrn=  0.000000 ICntrl=         0 IOpCl=  0 I1Cent=           0 NGrid=           0
         NMat0=    1 NMatS0=      1 NMatT0=    0 NMatD0=    1 NMtDS0=    0 NMtDT0=    0
 Petite list used in FoFCou.
 E= -225.130820790937    
 DIIS: error= 2.76D-02 at cycle   1 NSaved=   1.
 NSaved= 1 IEnMin= 1 EnMin= -225.130820790937     IErMin= 1 ErrMin= 2.76D-02
 ErrMax= 2.76D-02  0.00D+00 EMaxC= 1.00D-01 BMatC= 4.01D-01 BMatP= 4.01D-01
 IDIUse=3 WtCom= 7.24D-01 WtEn= 2.76D-01
 Coeff-Com:  0.100D+01
 Coeff-En:   0.100D+01
 Coeff:      0.100D+01
 Gap=     0.410 Goal=   None    Shift=    0.000
 GapD=    0.410 DampG=2.000 DampE=0.500 DampFc=1.0000 IDamp=-1.
 RMSDP=1.74D-03 MaxDP=1.20D-01              OVMax= 1.06D-01

 Cycle   2  Pass 1  IDiag  1:
 RMSU=  1.72D-03    CP:  9.71D-01
 E= -225.261521201538     Delta-E=       -0.130700410601 Rises=F Damp=F
 DIIS: error= 9.64D-03 at cycle   2 NSaved=   2.
 NSaved= 2 IEnMin= 2 EnMin= -225.261521201538     IErMin= 2 ErrMin= 9.64D-03
 ErrMax= 9.64D-03  0.00D+00 EMaxC= 1.00D-01 BMatC= 1.71D-02 BMatP= 4.01D-01
 IDIUse=3 WtCom= 9.04D-01 WtEn= 9.64D-02
 Coeff-Com:  0.379D-01 0.962D+00
 Coeff-En:   0.000D+00 0.100D+01
 Coeff:      0.343D-01 0.966D+00
 Gap=     0.487 Goal=   None    Shift=    0.000
 RMSDP=4.36D-04 MaxDP=1.73D-02 DE=-1.31D-01 OVMax= 6.03D-02

 Cycle   3  Pass 1  IDiag  1:
 RMSU=  4.18D-04    CP:  9.82D-01  1.05D+00
 E= -225.273432284950     Delta-E=       -0.011911083411 Rises=F Damp=F
 DIIS: error= 4.92D-03 at cycle   3 NSaved=   3.
 NSaved= 3 IEnMin= 3 EnMin= -225.273432284950     IErMin= 3 ErrMin= 4.92D-03
 ErrMax= 4.92D-03  0.00D+00 EMaxC= 1.00D-01 BMatC= 3.75D-03 BMatP= 1.71D-02
 IDIUse=3 WtCom= 9.51D-01 WtEn= 4.92D-02
 Coeff-Com: -0.255D-01 0.298D+00 0.728D+00
 Coeff-En:   0.000D+00 0.000D+00 0.100D+01
 Coeff:     -0.242D-01 0.283D+00 0.741D+00
 Gap=     0.452 Goal=   None    Shift=    0.000
 RMSDP=1.23D-04 MaxDP=3.61D-03 DE=-1.19D-02 OVMax= 1.58D-02

 Cycle   4  Pass 1  IDiag  1:
 RMSU=  9.39D-05    CP:  9.80D-01  1.07D+00  8.26D-01
 E= -225.276837423856     Delta-E=       -0.003405138907 Rises=F Damp=F
 DIIS: error= 1.39D-03 at cycle   4 NSaved=   4.
 NSaved= 4 IEnMin= 4 EnMin= -225.276837423856     IErMin= 4 ErrMin= 1.39D-03
 ErrMax= 1.39D-03  0.00D+00 EMaxC= 1.00D-01 BMatC= 6.30D-05 BMatP= 3.75D-03
 IDIUse=3 WtCom= 9.86D-01 WtEn= 1.39D-02
 Coeff-Com: -0.342D-02 0.103D-01 0.786D-01 0.915D+00
 Coeff-En:   0.000D+00 0.000D+00 0.000D+00 0.100D+01
 Coeff:     -0.337D-02 0.102D-01 0.775D-01 0.916D+00
 Gap=     0.450 Goal=   None    Shift=    0.000
 RMSDP=2.70D-05 MaxDP=1.88D-03 DE=-3.41D-03 OVMax= 7.52D-03

 Cycle   5  Pass 1  IDiag  1:
 RMSU=  2.45D-05    CP:  9.80D-01  1.07D+00  8.51D-01  1.04D+00
 E= -225.276974721716     Delta-E=       -0.000137297860 Rises=F Damp=F
 DIIS: error= 6.15D-04 at cycle   5 NSaved=   5.
 NSaved= 5 IEnMin= 5 EnMin= -225.276974721716     IErMin= 5 ErrMin= 6.15D-04
 ErrMax= 6.15D-04  0.00D+00 EMaxC= 1.00D-01 BMatC= 1.91D-05 BMatP= 6.30D-05
 IDIUse=3 WtCom= 9.94D-01 WtEn= 6.15D-03
 Coeff-Com:  0.227D-02-0.316D-01-0.803D-01 0.146D+00 0.963D+00
 Coeff-En:   0.000D+00 0.000D+00 0.000D+00 0.000D+00 0.100D+01
 Coeff:      0.225D-02-0.314D-01-0.798D-01 0.146D+00 0.963D+00
 Gap=     0.450 Goal=   None    Shift=    0.000
 RMSDP=1.53D-05 MaxDP=6.53D-04 DE=-1.37D-04 OVMax= 2.95D-03

 Cycle   6  Pass 1  IDiag  1:
 RMSU=  1.01D-05    CP:  9.81D-01  1.07D+00  8.61D-01  1.12D+00  1.24D+00
 E= -225.277020376956     Delta-E=       -0.000045655240 Rises=F Damp=F
 DIIS: error= 3.07D-04 at cycle   6 NSaved=   6.
 NSaved= 6 IEnMin= 6 EnMin= -225.277020376956     IErMin= 6 ErrMin= 3.07D-04
 ErrMax= 3.07D-04  0.00D+00 EMaxC= 1.00D-01 BMatC= 2.68D-06 BMatP= 1.91D-05
 IDIUse=3 WtCom= 9.97D-01 WtEn= 3.07D-03
 Coeff-Com:  0.554D-03-0.119D-02-0.145D-01-0.122D+00-0.204D+00 0.134D+01
 Coeff-En:   0.000D+00 0.000D+00 0.000D+00 0.000D+00 0.000D+00 0.100D+01
 Coeff:      0.553D-03-0.118D-02-0.144D-01-0.122D+00-0.203D+00 0.134D+01
 Gap=     0.450 Goal=   None    Shift=    0.000
 RMSDP=1.04D-05 MaxDP=6.49D-04 DE=-4.57D-05 OVMax= 3.08D-03

 Cycle   7  Pass 1  IDiag  1:
 RMSU=  4.19D-06    CP:  9.81D-01  1.07D+00  8.66D-01  1.17D+00  1.51D+00
                    CP:  1.47D+00
 E= -225.277034601776     Delta-E=       -0.000014224820 Rises=F Damp=F
 DIIS: error= 7.50D-05 at cycle   7 NSaved=   7.
 NSaved= 7 IEnMin= 7 EnMin= -225.277034601776     IErMin= 7 ErrMin= 7.50D-05
 ErrMax= 7.50D-05  0.00D+00 EMaxC= 1.00D-01 BMatC= 4.23D-07 BMatP= 2.68D-06
 IDIUse=1 WtCom= 1.00D+00 WtEn= 0.00D+00
 Coeff-Com: -0.512D-03 0.565D-02 0.161D-01 0.462D-01-0.150D+00-0.423D+00
 Coeff-Com:  0.151D+01
 Coeff:     -0.512D-03 0.565D-02 0.161D-01 0.462D-01-0.150D+00-0.423D+00
 Coeff:      0.151D+01
 Gap=     0.450 Goal=   None    Shift=    0.000
 RMSDP=4.60D-06 MaxDP=2.63D-04 DE=-1.42D-05 OVMax= 1.32D-03

 Cycle   8  Pass 1  IDiag  1:
 RMSU=  1.16D-06    CP:  9.81D-01  1.07D+00  8.67D-01  1.18D+00  1.60D+00
                    CP:  1.77D+00  1.45D+00
 E= -225.277036380330     Delta-E=       -0.000001778554 Rises=F Damp=F
 DIIS: error= 5.23D-06 at cycle   8 NSaved=   8.
 NSaved= 8 IEnMin= 8 EnMin= -225.277036380330     IErMin= 8 ErrMin= 5.23D-06
 ErrMax= 5.23D-06  0.00D+00 EMaxC= 1.00D-01 BMatC= 5.94D-09 BMatP= 4.23D-07
 IDIUse=1 WtCom= 1.00D+00 WtEn= 0.00D+00
 Coeff-Com:  0.103D-04-0.286D-03-0.101D-02 0.359D-03 0.143D-01 0.757D-02
 Coeff-Com: -0.155D+00 0.113D+01
 Coeff:      0.103D-04-0.286D-03-0.101D-02 0.359D-03 0.143D-01 0.757D-02
 Coeff:     -0.155D+00 0.113D+01
 Gap=     0.450 Goal=   None    Shift=    0.000
 RMSDP=3.78D-07 MaxDP=1.88D-05 DE=-1.78D-06 OVMax= 8.27D-05

 Cycle   9  Pass 1  IDiag  1:
 RMSU=  2.11D-07    CP:  9.81D-01  1.07D+00  8.66D-01  1.18D+00  1.60D+00
                    CP:  1.78D+00  1.48D+00  1.17D+00
 E= -225.277036393190     Delta-E=       -0.000000012860 Rises=F Damp=F
 DIIS: error= 2.32D-06 at cycle   9 NSaved=   9.
 NSaved= 9 IEnMin= 9 EnMin= -225.277036393190     IErMin= 9 ErrMin= 2.32D-06
 ErrMax= 2.32D-06  0.00D+00 EMaxC= 1.00D-01 BMatC= 7.46D-10 BMatP= 5.94D-09
 IDIUse=1 WtCom= 1.00D+00 WtEn= 0.00D+00
 Coeff-Com:  0.319D-04-0.397D-03-0.119D-02-0.215D-02 0.121D-01 0.285D-01
 Coeff-Com: -0.126D+00 0.286D+00 0.803D+00
 Coeff:      0.319D-04-0.397D-03-0.119D-02-0.215D-02 0.121D-01 0.285D-01
 Coeff:     -0.126D+00 0.286D+00 0.803D+00
 Gap=     0.450 Goal=   None    Shift=    0.000
 RMSDP=7.29D-08 MaxDP=3.42D-06 DE=-1.29D-08 OVMax= 8.59D-06

 Cycle  10  Pass 1  IDiag  1:
 RMSU=  5.06D-08    CP:  9.81D-01  1.07D+00  8.66D-01  1.18D+00  1.60D+00
                    CP:  1.78D+00  1.48D+00  1.20D+00  1.08D+00
 E= -225.277036394060     Delta-E=       -0.000000000871 Rises=F Damp=F
 DIIS: error= 5.80D-07 at cycle  10 NSaved=  10.
 NSaved=10 IEnMin=10 EnMin= -225.277036394060     IErMin=10 ErrMin= 5.80D-07
 ErrMax= 5.80D-07  0.00D+00 EMaxC= 1.00D-01 BMatC= 4.77D-11 BMatP= 7.46D-10
 IDIUse=1 WtCom= 1.00D+00 WtEn= 0.00D+00
 Coeff-Com: -0.206D-05 0.426D-04 0.150D-03 0.241D-04-0.254D-02-0.131D-02
 Coeff-Com:  0.204D-01-0.136D+00-0.299D-01 0.115D+01
 Coeff:     -0.206D-05 0.426D-04 0.150D-03 0.241D-04-0.254D-02-0.131D-02
 Coeff:      0.204D-01-0.136D+00-0.299D-01 0.115D+01
 Gap=     0.450 Goal=   None    Shift=    0.000
 RMSDP=2.82D-08 MaxDP=1.26D-06 DE=-8.71D-10 OVMax= 3.56D-06

 Cycle  11  Pass 1  IDiag  1:
 RMSU=  1.55D-08    CP:  9.81D-01  1.07D+00  8.66D-01  1.18D+00  1.60D+00
                    CP:  1.78D+00  1.48D+00  1.21D+00  1.16D+00  1.20D+00
 E= -225.277036394155     Delta-E=       -0.000000000095 Rises=F Damp=F
 DIIS: error= 1.32D-07 at cycle  11 NSaved=  11.
 NSaved=11 IEnMin=11 EnMin= -225.277036394155     IErMin=11 ErrMin= 1.32D-07
 ErrMax= 1.32D-07  0.00D+00 EMaxC= 1.00D-01 BMatC= 1.25D-12 BMatP= 4.77D-11
 IDIUse=1 WtCom= 1.00D+00 WtEn= 0.00D+00
 Coeff-Com: -0.100D-05 0.119D-04 0.336D-04 0.125D-03-0.256D-03-0.116D-02
 Coeff-Com:  0.381D-02 0.847D-03-0.305D-01-0.111D+00 0.114D+01
 Coeff:     -0.100D-05 0.119D-04 0.336D-04 0.125D-03-0.256D-03-0.116D-02
 Coeff:      0.381D-02 0.847D-03-0.305D-01-0.111D+00 0.114D+01
 Gap=     0.450 Goal=   None    Shift=    0.000
 RMSDP=5.23D-09 MaxDP=1.79D-07 DE=-9.50D-11 OVMax= 1.02D-06

 SCF Done:  E(RHF) =  -225.277036394     A.U. after   11 cycles
            NFock= 11  Conv=0.52D-08     -V/T= 2.0025
 KE= 2.247158409463D+02 PE=-8.614704954830D+02 EE= 2.393547796993D+02
 Leave Link  502 at Sun Sep 28 20:47:14 2025, MaxMem=  1572864000 cpu:             514.9 elap:              65.8
 (Enter /software/sse/easybuild/prefix/software/Gaussian/16.C.01-avx2-nsc1/g16/l801.exe)
 Range of M.O.s used for correlation:     1   345
 NBasis=   345 NAE=    18 NBE=    18 NFC=     0 NFV=     0
 NROrb=    345 NOA=    18 NOB=    18 NVA=   327 NVB=   327

 **** Warning!!: The largest alpha MO coefficient is  0.83300566D+02

 Leave Link  801 at Sun Sep 28 20:47:14 2025, MaxMem=  1572864000 cpu:               0.2 elap:               0.0
 (Enter /software/sse/easybuild/prefix/software/Gaussian/16.C.01-avx2-nsc1/g16/l1101.exe)
 Using compressed storage, NAtomX=    10.
 Will process     11 centers per pass.
 Leave Link 1101 at Sun Sep 28 20:47:14 2025, MaxMem=  1572864000 cpu:               1.9 elap:               0.3
 (Enter /software/sse/easybuild/prefix/software/Gaussian/16.C.01-avx2-nsc1/g16/l1102.exe)
 Symmetrizing basis deriv contribution to polar:
 IMax=3 JMax=2 DiffMx= 0.00D+00
 Leave Link 1102 at Sun Sep 28 20:47:14 2025, MaxMem=  1572864000 cpu:               0.3 elap:               0.1
 (Enter /software/sse/easybuild/prefix/software/Gaussian/16.C.01-avx2-nsc1/g16/l1110.exe)
 Forming Gx(P) for the SCF density, NAtomX=    10.
 Integral derivatives from FoFJK, PRISM(SPDF).
 Do as many integral derivatives as possible in FoFJK.
 G2DrvN: MDV=    1572862854.
 G2DrvN: will do    11 centers at a time, making    1 passes.
 Calling FoFCou, ICntrl=  3107 FMM=F I1Cent=   0 AccDes= 0.00D+00.
 FoFJK:  IHMeth= 1 ICntrl=    3107 DoSepK=F KAlg= 0 I1Cent=           0 FoldK=F
 IRaf=         0 NMat=       1 IRICut=       1 DoRegI=T DoRafI=F ISym2E= 1 IDoP0=0 IntGTp=1.
 FoFCou: FMM=F IPFlag=           0 FMFlag=      100000 FMFlg1=           0
         NFxFlg=           0 DoJE=F BraDBF=F KetDBF=F FulRan=T
         wScrn=  0.000000 ICntrl=      3107 IOpCl=  0 I1Cent=           0 NGrid=           0
         NMat0=    1 NMatS0=      1 NMatT0=    0 NMatD0=    1 NMtDS0=    0 NMtDT0=    0
 Petite list used in FoFCou.
 End of G2Drv F.D. properties file   721 does not exist.
 End of G2Drv F.D. properties file   722 does not exist.
 End of G2Drv F.D. properties file   788 does not exist.
 Leave Link 1110 at Sun Sep 28 20:48:09 2025, MaxMem=  1572864000 cpu:             431.4 elap:              54.7
 (Enter /software/sse/easybuild/prefix/software/Gaussian/16.C.01-avx2-nsc1/g16/l1002.exe)
 Minotr:  Closed shell wavefunction.
          IDoAtm=1111111111
          Direct CPHF calculation.
          Differentiating once with respect to electric field.
                with respect to dipole field.
          Differentiating once with respect to nuclear coordinates.
          Using symmetry in CPHF.
          Requested convergence is 1.0D-08 RMS, and 1.0D-07 maximum.
          Secondary convergence is 1.0D-12 RMS, and 1.0D-12 maximum.
          NewPWx=T KeepS1=F KeepF1=F KeepIn=T MapXYZ=F SortEE=F KeepMc=T.
 Two-electron integrals replicated using symmetry.
          MDV=    1572864000 using IRadAn=       1.
          Solving linear equations simultaneously, MaxMat=     384.
 FoF2E skips out because all densities are zero.
 FoFJK:  IHMeth= 1 ICntrl=       0 DoSepK=F KAlg= 0 I1Cent=           0 FoldK=F
 IRaf= 990000000 NMat=      30 IRICut=      75 DoRegI=T DoRafI=T ISym2E= 2 IDoP0=3 IntGTp=3.
 FoFCou: FMM=F IPFlag=           0 FMFlag=      100000 FMFlg1=           0
         NFxFlg=           0 DoJE=F BraDBF=F KetDBF=F FulRan=T
         wScrn=  0.000000 ICntrl=         0 IOpCl=  0 I1Cent=           0 NGrid=           0
         NMat0=   30 NMatS0=     30 NMatT0=    0 NMatD0=   30 NMtDS0=    0 NMtDT0=    0
 Integrals replicated using symmetry in FoFCou.
 Raff kept on since  99.37% of shell-pairs survive, threshold=   0.20 IRatSp=99.
          There are    33 degrees of freedom in the 1st order CPHF.  IDoFFX=6 NUNeed=     3.
     30 vectors produced by pass  0 Test12= 1.78D-14 3.03D-09 XBig12= 1.59D+01 2.33D+00.
 AX will form    30 AO Fock derivatives at one time.
     30 vectors produced by pass  1 Test12= 1.78D-14 3.03D-09 XBig12= 8.70D-01 1.80D-01.
     30 vectors produced by pass  2 Test12= 1.78D-14 3.03D-09 XBig12= 1.32D-02 2.54D-02.
     30 vectors produced by pass  3 Test12= 1.78D-14 3.03D-09 XBig12= 1.36D-04 3.68D-03.
     30 vectors produced by pass  4 Test12= 1.78D-14 3.03D-09 XBig12= 1.12D-06 1.48D-04.
     30 vectors produced by pass  5 Test12= 1.78D-14 3.03D-09 XBig12= 6.03D-09 1.32D-05.
     29 vectors produced by pass  6 Test12= 1.78D-14 3.03D-09 XBig12= 3.94D-11 1.13D-06.
      9 vectors produced by pass  7 Test12= 1.78D-14 3.03D-09 XBig12= 2.72D-13 1.15D-07.
      3 vectors produced by pass  8 Test12= 1.78D-14 3.03D-09 XBig12= 2.18D-15 7.72D-09.
 InvSVY:  IOpt=1 It=  1 EMax= 8.88D-16
 Solved reduced A of dimension   221 with    33 vectors.
 FullF1:  Do perturbations      1 to       3.
 Isotropic polarizability for W=    0.000000       41.52 Bohr**3.
 End of Minotr F.D. properties file   721 does not exist.
 End of Minotr F.D. properties file   722 does not exist.
 End of Minotr F.D. properties file   788 does not exist.
 Leave Link 1002 at Sun Sep 28 20:50:43 2025, MaxMem=  1572864000 cpu:            1221.9 elap:             154.2
 (Enter /software/sse/easybuild/prefix/software/Gaussian/16.C.01-avx2-nsc1/g16/l601.exe)
 Copying SCF densities to generalized density rwf, IOpCl= 0 IROHF=0.
 SCF density gives NOpUse=  2 NOpAll=  2.

 **********************************************************************

            Population analysis using the SCF Density.

 **********************************************************************

 Orbital symmetries:
 BldTbl:  Degeneracy threshold= 1.00D-02
       Occupied  (A') (A') (A') (A') (A') (A') (A') (A') (A') (A')
                 (A') (A') (A") (A') (A') (A') (A") (A")
       Virtual   (A') (A') (A") (A') (A') (A') (A") (A") (A') (A")
                 (A') (A') (A") (A') (A') (A') (A') (A') (A') (A")
                 (A') (A") (A') (A') (A') (A') (A") (A') (A') (A')
                 (A') (A') (A') (A") (A') (A") (A") (A') (A') (A")
                 (A') (A') (A") (A') (A") (A') (A') (A') (A") (A')
                 (A') (A') (A") (A') (A') (A") (A') (A') (A") (A')
                 (A') (A") (A') (A') (A') (A') (A') (A') (A") (A')
                 (A') (A") (A') (A") (A") (A') (A') (A") (A') (A")
                 (A') (A') (A') (A') (A') (A') (A') (A") (A") (A")
                 (A') (A') (A") (A') (A') (A") (A') (A") (A') (A')
                 (A") (A") (A') (A') (A") (A') (A') (A") (A") (A')
                 (A') (A') (A") (A") (A') (A') (A") (A') (A') (A')
                 (A') (A') (A") (A') (A") (A') (A') (A") (A') (A")
                 (A') (A') (A") (A") (A') (A') (A") (A") (A') (A')
                 (A") (A') (A') (A') (A') (A") (A') (A') (A") (A')
                 (A") (A") (A') (A') (A") (A') (A") (A') (A') (A")
                 (A') (A') (A') (A") (A') (A') (A') (A') (A") (A")
                 (A') (A") (A") (A') (A') (A') (A") (A') (A') (A')
                 (A') (A") (A') (A') (A") (A") (A') (A") (A') (A')
                 (A') (A") (A') (A') (A') (A") (A') (A') (A") (A')
                 (A') (A") (A') (A') (A") (A") (A') (A') (A") (A')
                 (A') (A') (A") (A") (A') (A") (A") (A") (A') (A')
                 (A') (A") (A") (A') (A') (A") (A') (A') (A") (A")
                 (A') (A') (A') (A') (A") (A') (A') (A") (A') (A')
                 (A") (A") (A') (A') (A') (A') (A") (A') (A') (A")
                 (A") (A") (A") (A') (A") (A') (A') (A') (A') (A")
                 (A') (A') (A') (A') (A") (A') (A") (A") (A") (A')
                 (A') (A') (A') (A") (A') (A') (A') (A') (A") (A")
                 (A') (A') (A") (A') (A") (A') (A') (A") (A") (A")
                 (A') (A') (A') (A") (A") (A') (A") (A') (A") (A')
                 (A') (A") (A') (A") (A') (A') (A") (A') (A') (A')
                 (A') (A') (A') (A') (A') (A') (A') (A') (A') (A')
                 (A') (A') (A') (A') (A') (A') (A')
 The electronic state is 1-A'.
 Alpha  occ. eigenvalues --  -15.85160 -15.85156 -11.55882 -11.47850 -11.47702
 Alpha  occ. eigenvalues --   -1.58680  -1.42790  -1.24674  -1.09925  -1.04240
 Alpha  occ. eigenvalues --   -0.99489  -0.89793  -0.83731  -0.83621  -0.81672
 Alpha  occ. eigenvalues --   -0.80840  -0.66338  -0.54714
 Alpha virt. eigenvalues --   -0.09701  -0.08093  -0.07876  -0.07105  -0.05286
 Alpha virt. eigenvalues --   -0.05139  -0.04633  -0.03533  -0.03405  -0.01050
 Alpha virt. eigenvalues --   -0.00976  -0.00225   0.00055   0.00107   0.00186
 Alpha virt. eigenvalues --    0.01402   0.02506   0.03606   0.03684   0.05002
 Alpha virt. eigenvalues --    0.05117   0.05557   0.07532   0.08938   0.09427
 Alpha virt. eigenvalues --    0.09686   0.11052   0.12869   0.13225   0.15766
 Alpha virt. eigenvalues --    0.16589   0.16843   0.17545   0.18112   0.18397
 Alpha virt. eigenvalues --    0.18780   0.19053   0.19485   0.21146   0.21877
 Alpha virt. eigenvalues --    0.22821   0.23561   0.25010   0.25162   0.25199
 Alpha virt. eigenvalues --    0.26313   0.26419   0.28543   0.30227   0.30732
 Alpha virt. eigenvalues --    0.31505   0.32300   0.32888   0.33754   0.34085
 Alpha virt. eigenvalues --    0.34553   0.34837   0.35717   0.35772   0.36457
 Alpha virt. eigenvalues --    0.37857   0.41630   0.42534   0.43275   0.44635
 Alpha virt. eigenvalues --    0.44959   0.45605   0.48483   0.49149   0.52152
 Alpha virt. eigenvalues --    0.52801   0.53093   0.56059   0.56217   0.56440
 Alpha virt. eigenvalues --    0.56498   0.60806   0.61387   0.61563   0.63955
 Alpha virt. eigenvalues --    0.65655   0.67692   0.68519   0.69227   0.71967
 Alpha virt. eigenvalues --    0.73093   0.73827   0.74705   0.75948   0.76286
 Alpha virt. eigenvalues --    0.77066   0.77467   0.79109   0.80359   0.80407
 Alpha virt. eigenvalues --    0.80437   0.82985   0.83173   0.85900   0.86788
 Alpha virt. eigenvalues --    0.87416   0.88433   0.88582   0.89174   0.90354
 Alpha virt. eigenvalues --    0.93262   0.94610   0.96398   0.96873   0.97882
 Alpha virt. eigenvalues --    0.98529   0.99138   1.00614   1.01944   1.02066
 Alpha virt. eigenvalues --    1.03700   1.04615   1.05431   1.06811   1.07277
 Alpha virt. eigenvalues --    1.10011   1.11716   1.14360   1.16119   1.18090
 Alpha virt. eigenvalues --    1.18153   1.19722   1.21462   1.22283   1.23902
 Alpha virt. eigenvalues --    1.24934   1.25339   1.26139   1.26755   1.30452
 Alpha virt. eigenvalues --    1.30880   1.33480   1.34042   1.34357   1.34804
 Alpha virt. eigenvalues --    1.35541   1.36633   1.41592   1.43696   1.47298
 Alpha virt. eigenvalues --    1.48049   1.48850   1.52697   1.55419   1.56857
 Alpha virt. eigenvalues --    1.59305   1.62778   1.62923   1.67945   1.68086
 Alpha virt. eigenvalues --    1.68986   1.69457   1.75662   1.76076   1.79844
 Alpha virt. eigenvalues --    1.80017   1.80942   1.84236   1.86983   1.87430
 Alpha virt. eigenvalues --    1.91267   1.92587   1.95492   1.96699   1.97752
 Alpha virt. eigenvalues --    1.98485   2.04858   2.06124   2.06142   2.07655
 Alpha virt. eigenvalues --    2.07704   2.13129   2.15588   2.16487   2.20105
 Alpha virt. eigenvalues --    2.21297   2.25867   2.27712   2.27732   2.28954
 Alpha virt. eigenvalues --    2.31219   2.32505   2.36006   2.36576   2.43783
 Alpha virt. eigenvalues --    2.47826   2.50865   2.51294   2.54353   2.63808
 Alpha virt. eigenvalues --    2.69136   2.70232   2.71518   2.80788   2.81360
 Alpha virt. eigenvalues --    2.85426   2.87903   2.89131   2.96941   3.07933
 Alpha virt. eigenvalues --    3.10896   3.11287   3.15661   3.23086   3.24121
 Alpha virt. eigenvalues --    3.27284   3.28173   3.31503   3.34652   3.39473
 Alpha virt. eigenvalues --    3.39603   3.45506   3.47757   3.48619   3.52438
 Alpha virt. eigenvalues --    3.53335   3.53930   3.56812   3.60173   3.61101
 Alpha virt. eigenvalues --    3.62236   3.63661   3.65002   3.66589   3.73629
 Alpha virt. eigenvalues --    3.74661   3.80316   3.81115   3.83627   3.89656
 Alpha virt. eigenvalues --    3.90836   3.91128   3.92519   3.94582   3.95248
 Alpha virt. eigenvalues --    3.96523   4.01084   4.02707   4.03382   4.05530
 Alpha virt. eigenvalues --    4.07535   4.10000   4.12700   4.15305   4.18181
 Alpha virt. eigenvalues --    4.18483   4.21080   4.26375   4.26692   4.32970
 Alpha virt. eigenvalues --    4.36443   4.36663   4.40204   4.40844   4.43235
 Alpha virt. eigenvalues --    4.51767   4.54986   4.55528   4.59231   4.61080
 Alpha virt. eigenvalues --    4.66134   4.69377   4.74113   4.75408   4.76478
 Alpha virt. eigenvalues --    4.80024   4.82417   4.82833   4.85205   4.89363
 Alpha virt. eigenvalues --    4.98912   4.99181   5.02052   5.05973   5.11943
 Alpha virt. eigenvalues --    5.15785   5.18516   5.24163   5.24414   5.28826
 Alpha virt. eigenvalues --    5.34649   5.36497   5.36540   5.38401   5.40398
 Alpha virt. eigenvalues --    5.45724   5.50898   5.51023   5.55102   5.55162
 Alpha virt. eigenvalues --    5.60759   5.61879   5.62407   5.67238   5.74935
 Alpha virt. eigenvalues --    5.79218   5.83676   5.84676   5.99140   5.99588
 Alpha virt. eigenvalues --    6.03875   6.10064   6.10802   6.28434   6.30965
 Alpha virt. eigenvalues --    6.40116   6.43270   6.50417   6.58519   6.65248
 Alpha virt. eigenvalues --    6.76800   6.77987   6.85165   6.92720   7.42113
 Alpha virt. eigenvalues --    7.60760   7.61241  15.98111  16.48459  18.05021
 Alpha virt. eigenvalues --   18.26448  18.94146
          Condensed to atoms (all electrons):
               1          2          3          4          5          6
     1  C    6.402221  -0.136232  -0.137086  -0.216817   0.299422   0.182581
     2  C   -0.136232   6.402463   0.299407  -0.217092  -0.137078   0.032495
     3  N   -0.137086   0.299407   6.143784   0.452690  -0.225091   0.001057
     4  C   -0.216817  -0.217092   0.452690   6.072682   0.452641  -0.019518
     5  N    0.299422  -0.137078  -0.225091   0.452641   6.144123   0.000995
     6  H    0.182581   0.032495   0.001057  -0.019518   0.000995   0.195796
     7  H    0.032506   0.182707   0.000988  -0.019532   0.001074  -0.001183
     8  H    0.011788  -0.062159   0.457952  -0.098184  -0.007793   0.000281
     9  H   -0.018210  -0.018236   0.016523   0.168437   0.016548  -0.002323
    10  H   -0.062124   0.011792  -0.007794  -0.098100   0.457820   0.011186
               7          8          9         10
     1  C    0.032506   0.011788  -0.018210  -0.062124
     2  C    0.182707  -0.062159  -0.018236   0.011792
     3  N    0.000988   0.457952   0.016523  -0.007794
     4  C   -0.019532  -0.098184   0.168437  -0.098100
     5  N    0.001074  -0.007793   0.016548   0.457820
     6  H   -0.001183   0.000281  -0.002323   0.011186
     7  H    0.195865   0.011184  -0.002324   0.000283
     8  H    0.011184   0.503466   0.005132   0.000267
     9  H   -0.002324   0.005132   0.184212   0.005133
    10  H    0.000283   0.000267   0.005133   0.503367
 Mulliken charges:
               1
     1  C   -0.358048
     2  C   -0.358068
     3  N   -0.002430
     4  C   -0.477206
     5  N   -0.002660
     6  H    0.598633
     7  H    0.598433
     8  H    0.178067
     9  H    0.645108
    10  H    0.178171
 Sum of Mulliken charges =   1.00000
 Mulliken charges with hydrogens summed into heavy atoms:
               1
     1  C    0.240585
     2  C    0.240365
     3  N    0.175637
     4  C    0.167902
     5  N    0.175511
 APT charges:
               1
     1  C    0.053623
     2  C    0.053678
     3  N   -0.313182
     4  C    0.357841
     5  N   -0.313235
     6  H    0.158685
     7  H    0.158641
     8  H    0.332858
     9  H    0.178255
    10  H    0.332837
 Sum of APT charges =   1.00000
 APT charges with hydrogens summed into heavy atoms:
               1
     1  C    0.212307
     2  C    0.212319
     3  N    0.019676
     4  C    0.536096
     5  N    0.019602
 DipInt: DoE/N= T F RetVal/Mat= T F Init=T NMatP=  1 IDeriv=0 Min/MaxMlt=  0  4
 Entering OneElI...
 OneElI was handed  1572454870 working-precision words.
 Multipole integrals L=0 to 4 MinM= 0 MaxM= 0.
 Requested accuracy = 0.1000D-12
 ShPair: Thresh= 1.00D-13 NBox=     0 BxSize= 0.00D+00 RnKept= 8.04D+00
         NSMCal=                 6670 NSMKep=                6654
 PrmmSu-InSpLW:  IPartL=    0 NPrtUS=    1 NPrtUL=    1 DoSpLW=F IThBeg=    0 IThEnd=    0 NThAct=    1.
 PrSmSu:  IncTry=   512 NBBP=           6654 NTPThr=   100 NPartT=    1 Incr=          66 LDynOK=F GPUOK=F.
 PrsmSu:  NPrtUS=   1 ThrOK=F IAlg=2 LenDen=           0 ISkipM=0 DoSpLW=F IThBeg=    0 IThEnd=    0.
 Prism:   IPart=     0 DynPar=F LinDyn=F Incr=          66.
 PRISM was handed  1571979024 working-precision words and  6654 shell-pairs
 IPart=  0 NShTot=        6654 NBatch=          81 AvBLen=        82.1
 PrsmSu-ThDecC:  IPartSL=    0    0 NPrtUSL=    1    1 IThBeg=    0 IThEnd=    0 CPU=   -1 GPU=   -1 NThAct=    1.
 PrSmSu:  NxtVal=             67.
 Electronic moments (au):
        -36.00000000         -0.63670586          0.20754699          0.00000000
       -131.98480473       -131.10813542        -22.66686295          0.32448674
          0.00000000          0.00000000        -21.09468689         10.30062505
          0.00000000         -9.70156124         -0.25079677          0.00000000
         -2.71125221          0.88419375         -0.00000000          0.00000000
      -1189.35061694      -1071.16497573        -81.25910348          4.55923996
          0.00000000         38.54945115          0.00000000          0.00000000
          0.00000000       -384.06402024        -97.75049132        -91.13501428
          0.00000000         -0.00000000          2.41155909
 Electronic spatial extent (au):  <R**2>=            285.7598
 DipInt: DoE/N= F T RetVal/Mat= T F Init=T NMatP=  1 IDeriv=0 Min/MaxMlt=  0  4
 Nuclear    moments (au):
         37.00000000          0.00000000         -0.00000000         -0.00000000
        120.27216471        121.29986770          0.00000000          0.36879137
         -0.00000000         -0.00000000         11.22536407         -6.46035585
         -0.00000000          5.92252813          0.85438791         -0.00000000
          0.00000000          0.00000000          0.00000000         -0.00000000
        870.41409199        823.25996095          0.00000000          6.88437740
         -0.00000000        -24.09487884         -0.00000000         -0.00000000
         -0.00000000        288.94353197          0.00000000          0.00000000
         -0.00000000          0.00000000          0.00000000
 Total      moments (au):
          1.00000000         -0.63670586          0.20754699          0.00000000
        -11.71264003         -9.80826772        -22.66686295          0.69327811
          0.00000000          0.00000000         -9.86932282          3.84026919
          0.00000000         -3.77903311          0.60359114          0.00000000
         -2.71125221          0.88419375         -0.00000000          0.00000000
       -318.93652495       -247.90501478        -81.25910348         11.44361736
          0.00000000         14.45457231          0.00000000          0.00000000
          0.00000000        -95.12048827        -97.75049132        -91.13501428
          0.00000000          0.00000000          2.41155909
 Charge=              1.0000 electrons
 Dipole moment (field-independent basis, Debye):
    X=             -1.6183    Y=              0.5275    Z=              0.0000  Tot=              1.7022
 Quadrupole moment (field-independent basis, Debye-Ang):
   XX=            -15.7539   YY=            -13.1925   ZZ=            -30.4877
   XY=              0.9325   XZ=              0.0000   YZ=              0.0000
 Traceless Quadrupole moment (field-independent basis, Debye-Ang):
   XX=              4.0575   YY=              6.6189   ZZ=            -10.6764
   XY=              0.9325   XZ=              0.0000   YZ=              0.0000
 Octapole moment (field-independent basis, Debye-Ang**2):
  XXX=             -7.0246  YYY=              2.7334  ZZZ=              0.0000  XYY=             -2.6898
  XXY=              0.4296  XXZ=              0.0000  XZZ=             -1.9298  YZZ=              0.6293
  YYZ=             -0.0000  XYZ=              0.0000
 Hexadecapole moment (field-independent basis, Debye-Ang**3):
 XXXX=           -120.1268 YYYY=            -93.3729 ZZZZ=            -30.6061 XXXY=              4.3102
 XXXZ=              0.0000 YYYX=              5.4443 YYYZ=              0.0000 ZZZX=              0.0000
 ZZZY=              0.0000 XXYY=            -35.8269 XXZZ=            -36.8175 YYZZ=            -34.3258
 XXYZ=              0.0000 YYXZ=              0.0000 ZZXY=              0.9083
 N-N= 1.721228384431D+02 E-N=-8.614704948963D+02  KE= 2.247158409463D+02
 Symmetry A'   KE= 2.166165813240D+02
 Symmetry A"   KE= 8.099259622359D+00
 SetAtRh:  ITypeU=  23 NETotI=      -1 ICharg=  0 NETot=      37.
 StAtR1:  I=    1 I1=    1 IA=  6 C=   6.0 OKShel=TTT
                                                  SSP
                                                  222
 StAtR1:  I=    2 I1=    2 IA=  6 C=   6.0 OKShel=TTT
                                                  SSP
                                                  222
 StAtR1:  I=    3 I1=    3 IA=  7 C=   7.0 OKShel=TTT
                                                  SSP
                                                  223
 StAtR1:  I=    4 I1=    4 IA=  6 C=   6.0 OKShel=TTT
                                                  SSP
                                                  222
 StAtR1:  I=    5 I1=    5 IA=  7 C=   7.0 OKShel=TTT
                                                  SSP
                                                  223
 StAtR1:  I=    6 I1=    6 IA=  1 C=   1.0 OKShel=T
                                                  S
                                                  1
 StAtR1:  I=    7 I1=    7 IA=  1 C=   1.0 OKShel=T
                                                  S
                                                  1
 StAtR1:  I=    8 I1=    8 IA=  1 C=   1.0 OKShel=T
                                                  S
                                                  1
 StAtR1:  I=    9 I1=    9 IA=  1 C=   1.0 OKShel=T
                                                  S
                                                  1
 StAtR1:  I=   10 I1=   10 IA=  1 C=   1.0 OKShel=T
                                                  S
                                                  1
          I=    1 IA=  6 I1=    1 NAtG=23 NE=   6.000 C=   6.000 Err= 1.75D-11
          I=    2 IA=  6 I1=    2 NAtG=23 NE=   6.000 C=   6.000 Err= 1.75D-11
          I=    3 IA=  7 I1=    3 NAtG=22 NE=   7.000 C=   7.000 Err= 6.08D-13
          I=    4 IA=  6 I1=    4 NAtG=23 NE=   6.000 C=   6.000 Err= 1.75D-11
          I=    5 IA=  7 I1=    5 NAtG=22 NE=   7.000 C=   7.000 Err= 6.08D-13
          I=    6 IA=  1 I1=    6 NAtG=20 NE=   1.000 C=   1.000 Err= 2.80D-12
          I=    7 IA=  1 I1=    7 NAtG=20 NE=   1.000 C=   1.000 Err= 2.80D-12
          I=    8 IA=  1 I1=    8 NAtG=20 NE=   1.000 C=   1.000 Err= 2.80D-12
          I=    9 IA=  1 I1=    9 NAtG=20 NE=   1.000 C=   1.000 Err= 2.80D-12
          I=   10 IA=  1 I1=   10 NAtG=20 NE=   1.000 C=   1.000 Err= 2.80D-12
 Pruned (  99, 590) grid will be used in numerical quadrature.
 IPart=  0 IRanGd=          0 ScrnBf=T ScrnGd=T RCrit=4.00D+00 DoMicB=T.
 CutRad = 1000.00    CtRdIn =    0.00    XCrit =  15.00   ICut = 0
 Pruned (  99, 590) grid will be used in numerical quadrature.
 Pruned (  99, 590) grid will be used in numerical quadrature.
 Pruned (  99, 590) grid will be used in numerical quadrature.
 Pruned (  99, 590) grid will be used in numerical quadrature.
 IPart=  4 IRanGd=          0 ScrnBf=T ScrnGd=T RCrit=4.00D+00 DoMicB=T.
 CutRad = 1000.00    CtRdIn =    0.00    XCrit =  15.00   ICut = 0
 IPart=  6 IRanGd=          0 ScrnBf=T ScrnGd=T RCrit=4.00D+00 DoMicB=T.
 CutRad = 1000.00    CtRdIn =    0.00    XCrit =  15.00   ICut = 0
 IPart=  5 IRanGd=          0 ScrnBf=T ScrnGd=T RCrit=4.00D+00 DoMicB=T.
 CutRad = 1000.00    CtRdIn =    0.00    XCrit =  15.00   ICut = 0
 Pruned (  99, 590) grid will be used in numerical quadrature.
 Pruned (  99, 590) grid will be used in numerical quadrature.
 IPart=  7 IRanGd=          0 ScrnBf=T ScrnGd=T RCrit=4.00D+00 DoMicB=T.
 CutRad = 1000.00    CtRdIn =    0.00    XCrit =  15.00   ICut = 0
 IPart=  1 IRanGd=          0 ScrnBf=T ScrnGd=T RCrit=4.00D+00 DoMicB=T.
 Pruned (  99, 590) grid will be used in numerical quadrature.
 Pruned (  99, 590) grid will be used in numerical quadrature.
 IPart=  0 Atom number   1 atomic number  6 has       23114 grid points.
 CutRad = 1000.00    CtRdIn =    0.00    XCrit =  15.00   ICut = 0
 IPart=  2 IRanGd=          0 ScrnBf=T ScrnGd=T RCrit=4.00D+00 DoMicB=T.
 IPart=  0 Atom   1 batch    1 overlaps   10 atoms,   110 shells and    10 DB shells.   NGrid=      2408
 IPart=  3 IRanGd=          0 ScrnBf=T ScrnGd=T RCrit=4.00D+00 DoMicB=T.
 CutRad = 1000.00    CtRdIn =    0.00    XCrit =  15.00   ICut = 0
 CutRad = 1000.00    CtRdIn =    0.00    XCrit =  15.00   ICut = 0
 Symmetry reduced    86 angular points to    86 for atom    1.
 Pruned (  99, 590) grid will be used in numerical quadrature.
 Pruned (  99, 590) grid will be used in numerical quadrature.
 Pruned (  99, 590) grid will be used in numerical quadrature.
 IPart=  6 Atom number   1 atomic number  6 has       23114 grid points.
 IPart=  7 Atom number   1 atomic number  6 has       23114 grid points.
 IPart=  6 Atom   1 batch    4 overlaps   10 atoms,   115 shells and    10 DB shells.   NGrid=      1180
 IPart=  7 Atom   1 batch    5 overlaps   10 atoms,   115 shells and    10 DB shells.   NGrid=      1180
 IPart=  5 Atom number   1 atomic number  6 has       23114 grid points.
 Pruned (  99, 590) grid will be used in numerical quadrature.
 IPart=  5 Atom   1 batch    2 overlaps   10 atoms,   112 shells and    10 DB shells.   NGrid=      2522
 IPart=  1 Atom number   1 atomic number  6 has       23114 grid points.
 Pruned (  99, 590) grid will be used in numerical quadrature.
 Symmetry reduced   590 angular points to   590 for atom    1.
 IPart=  3 Atom number   1 atomic number  6 has       23114 grid points.
 Pruned (  99, 590) grid will be used in numerical quadrature.
 Pruned (  99, 590) grid will be used in numerical quadrature.
 IPart=  4 Atom number   1 atomic number  6 has       23114 grid points.
 IPart=  2 Atom number   1 atomic number  6 has       23114 grid points.
 IPart=  4 Atom   1 batch    3 overlaps   10 atoms,   114 shells and    10 DB shells.   NGrid=      2114
 IPart=  1 Atom   1 batch    6 overlaps   10 atoms,   115 shells and    10 DB shells.   NGrid=      1180
 IPart=  2 Atom   1 batch    8 overlaps   10 atoms,   115 shells and    10 DB shells.   NGrid=      1180
 Symmetry reduced   302 angular points to   302 for atom    1.
 IPart=  3 Atom   1 batch    7 overlaps   10 atoms,   115 shells and    10 DB shells.   NGrid=      1180
 Symmetry reduced   194 angular points to   194 for atom    1.
 Symmetry reduced   590 angular points to   590 for atom    1.
 Symmetry reduced   590 angular points to   590 for atom    1.
 Symmetry reduced   590 angular points to   590 for atom    1.
 Symmetry reduced   590 angular points to   590 for atom    1.
 IPart=  6 Atom   1 batch    9 overlaps   10 atoms,   115 shells and    10 DB shells.   NGrid=      1180
 IPart=  7 Atom   1 batch   10 overlaps   10 atoms,   115 shells and    10 DB shells.   NGrid=      1180
 IPart=  2 Atom   1 batch   11 overlaps   10 atoms,   114 shells and    10 DB shells.   NGrid=      1180
 IPart=  1 Atom   1 batch   12 overlaps   10 atoms,   114 shells and    10 DB shells.   NGrid=       590
 IPart=  3 Atom   1 batch   13 overlaps   10 atoms,   114 shells and    10 DB shells.   NGrid=       604
 Symmetry reduced   302 angular points to   302 for atom    1.
 IPart=  1 Atom   1 batch   14 overlaps   10 atoms,   114 shells and    10 DB shells.   NGrid=       604
 Symmetry reduced   302 angular points to   302 for atom    1.
 IPart=  3 Atom   1 batch   15 overlaps   10 atoms,   109 shells and    10 DB shells.   NGrid=       604
 IPart=  4 Atom   1 batch   16 overlaps   10 atoms,   102 shells and    10 DB shells.   NGrid=       604
 IPart=  0 Atom   1 batch   17 overlaps   10 atoms,    90 shells and    10 DB shells.   NGrid=       604
 Symmetry reduced   302 angular points to   302 for atom    1.
 IPart=  3 Atom   1 batch   18 overlaps   10 atoms,    70 shells and    10 DB shells.   NGrid=       604
 IPart=  0 Atom   1 batch   19 overlaps   10 atoms,    50 shells and    10 DB shells.   NGrid=       604
 IPart=  2 Atom   1 batch   20 overlaps   10 atoms,    32 shells and     6 DB shells.   NGrid=       604
 Symmetry reduced   302 angular points to   302 for atom    1.
 IPart=  7 Atom   1 batch   21 overlaps   10 atoms,    15 shells and     0 DB shells.   NGrid=       604
 Symmetry reduced   302 angular points to   302 for atom    1.
 IPart=  1 Atom   1 batch   22 overlaps   10 atoms,     6 shells and     0 DB shells.   NGrid=       604
 Pruned (  99, 590) grid will be used in numerical quadrature.
 IPart=  2 Atom number   2 atomic number  6 has       23114 grid points.
 IPart=  2 Atom   2 batch    1 overlaps   10 atoms,   110 shells and    10 DB shells.   NGrid=      2408
 Symmetry reduced    86 angular points to    86 for atom    2.
 Pruned (  99, 590) grid will be used in numerical quadrature.
 Pruned (  99, 590) grid will be used in numerical quadrature.
 IPart=  4 Atom number   2 atomic number  6 has       23114 grid points.
 IPart=  0 Atom number   2 atomic number  6 has       23114 grid points.
 IPart=  4 Atom   2 batch    2 overlaps   10 atoms,   112 shells and    10 DB shells.   NGrid=      2522
 IPart=  0 Atom   2 batch    3 overlaps   10 atoms,   114 shells and    10 DB shells.   NGrid=      2114
 Symmetry reduced   194 angular points to   194 for atom    2.
 Pruned (  99, 590) grid will be used in numerical quadrature.
 Symmetry reduced   302 angular points to   302 for atom    2.
 IPart=  6 Atom number   2 atomic number  6 has       23114 grid points.
 IPart=  6 Atom   2 batch    4 overlaps   10 atoms,   115 shells and    10 DB shells.   NGrid=      1180
 Symmetry reduced   590 angular points to   590 for atom    2.
 Pruned (  99, 590) grid will be used in numerical quadrature.
 Pruned (  99, 590) grid will be used in numerical quadrature.
 IPart=  5 Atom number   2 atomic number  6 has       23114 grid points.
 IPart=  1 Atom number   2 atomic number  6 has       23114 grid points.
 IPart=  5 Atom   2 batch    5 overlaps   10 atoms,   115 shells and    10 DB shells.   NGrid=      1180
 IPart=  1 Atom   2 batch    6 overlaps   10 atoms,   115 shells and    10 DB shells.   NGrid=      1180
 Symmetry reduced   590 angular points to   590 for atom    2.
 Symmetry reduced   590 angular points to   590 for atom    2.
 Pruned (  99, 590) grid will be used in numerical quadrature.
 IPart=  7 Atom number   2 atomic number  6 has       23114 grid points.
 IPart=  7 Atom   2 batch    7 overlaps   10 atoms,   115 shells and    10 DB shells.   NGrid=      1180
 Pruned (  99, 590) grid will be used in numerical quadrature.
 Symmetry reduced   590 angular points to   590 for atom    2.
 IPart=  3 Atom number   2 atomic number  6 has       23114 grid points.
 IPart=  3 Atom   2 batch    8 overlaps   10 atoms,   115 shells and    10 DB shells.   NGrid=      1180
 Symmetry reduced   590 angular points to   590 for atom    2.
 IPart=  6 Atom   2 batch    9 overlaps   10 atoms,   115 shells and    10 DB shells.   NGrid=      1180
 IPart=  5 Atom   2 batch   10 overlaps   10 atoms,   115 shells and    10 DB shells.   NGrid=      1180
 IPart=  1 Atom   2 batch   11 overlaps   10 atoms,   114 shells and    10 DB shells.   NGrid=      1180
 IPart=  7 Atom   2 batch   12 overlaps   10 atoms,   114 shells and    10 DB shells.   NGrid=       590
 IPart=  3 Atom   2 batch   13 overlaps   10 atoms,   114 shells and    10 DB shells.   NGrid=       604
 Symmetry reduced   302 angular points to   302 for atom    2.
 IPart=  7 Atom   2 batch   14 overlaps   10 atoms,   114 shells and    10 DB shells.   NGrid=       604
 Symmetry reduced   302 angular points to   302 for atom    2.
 IPart=  3 Atom   2 batch   15 overlaps   10 atoms,   109 shells and    10 DB shells.   NGrid=       604
 IPart=  0 Atom   2 batch   16 overlaps   10 atoms,   102 shells and    10 DB shells.   NGrid=       604
 IPart=  2 Atom   2 batch   17 overlaps   10 atoms,    90 shells and    10 DB shells.   NGrid=       604
 Symmetry reduced   302 angular points to   302 for atom    2.
 IPart=  3 Atom   2 batch   18 overlaps   10 atoms,    70 shells and    10 DB shells.   NGrid=       604
 IPart=  1 Atom   2 batch   19 overlaps   10 atoms,    50 shells and    10 DB shells.   NGrid=       604
 Symmetry reduced   302 angular points to   302 for atom    2.
 IPart=  5 Atom   2 batch   20 overlaps   10 atoms,    32 shells and     6 DB shells.   NGrid=       604
 Symmetry reduced   302 angular points to   302 for atom    2.
 IPart=  6 Atom   2 batch   21 overlaps   10 atoms,    15 shells and     0 DB shells.   NGrid=       604
 Symmetry reduced   302 angular points to   302 for atom    2.
 IPart=  7 Atom   2 batch   22 overlaps   10 atoms,     6 shells and     0 DB shells.   NGrid=       604
 Pruned (  99, 590) grid will be used in numerical quadrature.
 IPart=  1 Atom number   3 atomic number  7 has       23416 grid points.
 IPart=  1 Atom   3 batch    1 overlaps   10 atoms,   110 shells and    10 DB shells.   NGrid=      2408
 Symmetry reduced    86 angular points to    86 for atom    3.
 Pruned (  99, 590) grid will be used in numerical quadrature.
 Pruned (  99, 590) grid will be used in numerical quadrature.
 IPart=  2 Atom number   3 atomic number  7 has       23416 grid points.
 IPart=  4 Atom number   3 atomic number  7 has       23416 grid points.
 IPart=  2 Atom   3 batch    2 overlaps   10 atoms,   112 shells and    10 DB shells.   NGrid=      2522
 IPart=  4 Atom   3 batch    3 overlaps   10 atoms,   114 shells and    10 DB shells.   NGrid=      2114
 Pruned (  99, 590) grid will be used in numerical quadrature.
 Symmetry reduced   302 angular points to   302 for atom    3.
 IPart=  0 Atom number   3 atomic number  7 has       23416 grid points.
 Symmetry reduced   194 angular points to   194 for atom    3.
 IPart=  0 Atom   3 batch    4 overlaps   10 atoms,   114 shells and    10 DB shells.   NGrid=      1180
 Symmetry reduced   590 angular points to   590 for atom    3.
 Pruned (  99, 590) grid will be used in numerical quadrature.
 IPart=  5 Atom number   3 atomic number  7 has       23416 grid points.
 IPart=  5 Atom   3 batch    5 overlaps   10 atoms,   115 shells and    10 DB shells.   NGrid=      1180
 Symmetry reduced   590 angular points to   590 for atom    3.
 Pruned (  99, 590) grid will be used in numerical quadrature.
 IPart=  7 Atom number   3 atomic number  7 has       23416 grid points.
 IPart=  7 Atom   3 batch    6 overlaps   10 atoms,   115 shells and    10 DB shells.   NGrid=      1180
 Pruned (  99, 590) grid will be used in numerical quadrature.
 Symmetry reduced   590 angular points to   590 for atom    3.
 IPart=  3 Atom number   3 atomic number  7 has       23416 grid points.
 Pruned (  99, 590) grid will be used in numerical quadrature.
 IPart=  3 Atom   3 batch    7 overlaps   10 atoms,   115 shells and    10 DB shells.   NGrid=      1180
 IPart=  6 Atom number   3 atomic number  7 has       23416 grid points.
 Symmetry reduced   590 angular points to   590 for atom    3.
 IPart=  6 Atom   3 batch    8 overlaps   10 atoms,   115 shells and    10 DB shells.   NGrid=      1180
 Symmetry reduced   590 angular points to   590 for atom    3.
 IPart=  0 Atom   3 batch    9 overlaps   10 atoms,   115 shells and    10 DB shells.   NGrid=      1180
 IPart=  5 Atom   3 batch   10 overlaps   10 atoms,   115 shells and    10 DB shells.   NGrid=      1180
 IPart=  7 Atom   3 batch   11 overlaps   10 atoms,   115 shells and    10 DB shells.   NGrid=      1180
 IPart=  3 Atom   3 batch   12 overlaps   10 atoms,   114 shells and    10 DB shells.   NGrid=       590
 IPart=  6 Atom   3 batch   13 overlaps   10 atoms,   114 shells and    10 DB shells.   NGrid=       604
 Symmetry reduced   302 angular points to   302 for atom    3.
 IPart=  3 Atom   3 batch   14 overlaps   10 atoms,   114 shells and    10 DB shells.   NGrid=       604
 Symmetry reduced   302 angular points to   302 for atom    3.
 IPart=  6 Atom   3 batch   15 overlaps   10 atoms,   112 shells and    10 DB shells.   NGrid=       604
 IPart=  4 Atom   3 batch   16 overlaps   10 atoms,   108 shells and    10 DB shells.   NGrid=       604
 IPart=  1 Atom   3 batch   17 overlaps   10 atoms,   104 shells and    10 DB shells.   NGrid=       604
 Symmetry reduced   302 angular points to   302 for atom    3.
 IPart=  2 Atom   3 batch   18 overlaps   10 atoms,    86 shells and    10 DB shells.   NGrid=       604
 Symmetry reduced   302 angular points to   302 for atom    3.
 IPart=  0 Atom   3 batch   19 overlaps   10 atoms,    64 shells and    10 DB shells.   NGrid=       604
 Symmetry reduced   302 angular points to   302 for atom    3.
 IPart=  7 Atom   3 batch   20 overlaps   10 atoms,    44 shells and     9 DB shells.   NGrid=       604
 Symmetry reduced   302 angular points to   302 for atom    3.
 IPart=  6 Atom   3 batch   21 overlaps   10 atoms,    27 shells and     5 DB shells.   NGrid=       604
 IPart=  4 Atom   3 batch   22 overlaps   10 atoms,    12 shells and     0 DB shells.   NGrid=       604
 IPart=  5 Atom   3 batch   23 overlaps   10 atoms,     4 shells and     0 DB shells.   NGrid=       302
 Symmetry reduced   302 angular points to   302 for atom    3.
 Pruned (  99, 590) grid will be used in numerical quadrature.
 IPart=  6 Atom number   4 atomic number  6 has       23114 grid points.
 IPart=  6 Atom   4 batch    1 overlaps   10 atoms,   109 shells and    10 DB shells.   NGrid=      2408
 Symmetry reduced    86 angular points to    86 for atom    4.
 Pruned (  99, 590) grid will be used in numerical quadrature.
 IPart=  7 Atom number   4 atomic number  6 has       23114 grid points.
 IPart=  7 Atom   4 batch    2 overlaps   10 atoms,   111 shells and    10 DB shells.   NGrid=      2522
 Symmetry reduced   194 angular points to   194 for atom    4.
 Pruned (  99, 590) grid will be used in numerical quadrature.
 IPart=  1 Atom number   4 atomic number  6 has       23114 grid points.
 IPart=  1 Atom   4 batch    3 overlaps   10 atoms,   115 shells and    10 DB shells.   NGrid=      2114
 Pruned (  99, 590) grid will be used in numerical quadrature.
 Pruned (  99, 590) grid will be used in numerical quadrature.
 Symmetry reduced   302 angular points to   302 for atom    4.
 IPart=  3 Atom number   4 atomic number  6 has       23114 grid points.
 IPart=  5 Atom number   4 atomic number  6 has       23114 grid points.
 IPart=  3 Atom   4 batch    4 overlaps   10 atoms,   115 shells and    10 DB shells.   NGrid=      1180
 Pruned (  99, 590) grid will be used in numerical quadrature.
 IPart=  5 Atom   4 batch    5 overlaps   10 atoms,   115 shells and    10 DB shells.   NGrid=      1180
 Pruned (  99, 590) grid will be used in numerical quadrature.
 Symmetry reduced   590 angular points to   590 for atom    4.
 IPart=  0 Atom number   4 atomic number  6 has       23114 grid points.
 Symmetry reduced   590 angular points to   590 for atom    4.
 IPart=  0 Atom   4 batch    7 overlaps   10 atoms,   115 shells and    10 DB shells.   NGrid=      1180
 IPart=  4 Atom number   4 atomic number  6 has       23114 grid points.
 Symmetry reduced   590 angular points to   590 for atom    4.
 IPart=  4 Atom   4 batch    6 overlaps   10 atoms,   115 shells and    10 DB shells.   NGrid=      1180
 Symmetry reduced   590 angular points to   590 for atom    4.
 Pruned (  99, 590) grid will be used in numerical quadrature.
 IPart=  2 Atom number   4 atomic number  6 has       23114 grid points.
 IPart=  2 Atom   4 batch    8 overlaps   10 atoms,   115 shells and    10 DB shells.   NGrid=      1180
 Symmetry reduced   590 angular points to   590 for atom    4.
 IPart=  3 Atom   4 batch    9 overlaps   10 atoms,   115 shells and    10 DB shells.   NGrid=      1180
 IPart=  5 Atom   4 batch   10 overlaps   10 atoms,   115 shells and    10 DB shells.   NGrid=      1180
 IPart=  4 Atom   4 batch   11 overlaps   10 atoms,   114 shells and    10 DB shells.   NGrid=      1180
 IPart=  0 Atom   4 batch   12 overlaps   10 atoms,   114 shells and    10 DB shells.   NGrid=       590
 IPart=  2 Atom   4 batch   13 overlaps   10 atoms,   114 shells and    10 DB shells.   NGrid=       604
 Symmetry reduced   302 angular points to   302 for atom    4.
 IPart=  0 Atom   4 batch   14 overlaps   10 atoms,   112 shells and    10 DB shells.   NGrid=       604
 Symmetry reduced   302 angular points to   302 for atom    4.
 IPart=  2 Atom   4 batch   15 overlaps   10 atoms,   109 shells and    10 DB shells.   NGrid=       604
 IPart=  1 Atom   4 batch   16 overlaps   10 atoms,    98 shells and    10 DB shells.   NGrid=       604
 IPart=  6 Atom   4 batch   17 overlaps   10 atoms,    91 shells and    10 DB shells.   NGrid=       604
 Symmetry reduced   302 angular points to   302 for atom    4.
 IPart=  4 Atom   4 batch   18 overlaps   10 atoms,    67 shells and    10 DB shells.   NGrid=       604
 Symmetry reduced   302 angular points to   302 for atom    4.
 IPart=  0 Atom   4 batch   19 overlaps   10 atoms,    52 shells and    10 DB shells.   NGrid=       604
 IPart=  7 Atom   4 batch   20 overlaps   10 atoms,    32 shells and     6 DB shells.   NGrid=       604
 Symmetry reduced   302 angular points to   302 for atom    4.
 IPart=  3 Atom   4 batch   21 overlaps   10 atoms,    15 shells and     0 DB shells.   NGrid=       604
 IPart=  2 Atom   4 batch   22 overlaps   10 atoms,     7 shells and     0 DB shells.   NGrid=       604
 Symmetry reduced   302 angular points to   302 for atom    4.
 Pruned (  99, 590) grid will be used in numerical quadrature.
 IPart=  5 Atom number   5 atomic number  7 has       23416 grid points.
 IPart=  5 Atom   5 batch    1 overlaps   10 atoms,   110 shells and    10 DB shells.   NGrid=      2408
 Symmetry reduced    86 angular points to    86 for atom    5.
 Pruned (  99, 590) grid will be used in numerical quadrature.
 IPart=  1 Atom number   5 atomic number  7 has       23416 grid points.
 IPart=  1 Atom   5 batch    2 overlaps   10 atoms,   112 shells and    10 DB shells.   NGrid=      2522
 Symmetry reduced   194 angular points to   194 for atom    5.
 Pruned (  99, 590) grid will be used in numerical quadrature.
 IPart=  6 Atom number   5 atomic number  7 has       23416 grid points.
 IPart=  6 Atom   5 batch    3 overlaps   10 atoms,   114 shells and    10 DB shells.   NGrid=      2114
 Symmetry reduced   302 angular points to   302 for atom    5.
 Pruned (  99, 590) grid will be used in numerical quadrature.
 IPart=  0 Atom number   5 atomic number  7 has       23416 grid points.
 IPart=  0 Atom   5 batch    4 overlaps   10 atoms,   114 shells and    10 DB shells.   NGrid=      1180
 Pruned (  99, 590) grid will be used in numerical quadrature.
 Pruned (  99, 590) grid will be used in numerical quadrature.
 IPart=  2 Atom number   5 atomic number  7 has       23416 grid points.
 IPart=  3 Atom number   5 atomic number  7 has       23416 grid points.
 IPart=  2 Atom   5 batch    5 overlaps   10 atoms,   115 shells and    10 DB shells.   NGrid=      1180
 IPart=  3 Atom   5 batch    7 overlaps   10 atoms,   115 shells and    10 DB shells.   NGrid=      1180
 Symmetry reduced   590 angular points to   590 for atom    5.
 Pruned (  99, 590) grid will be used in numerical quadrature.
 Symmetry reduced   590 angular points to   590 for atom    5.
 Symmetry reduced   590 angular points to   590 for atom    5.
 Pruned (  99, 590) grid will be used in numerical quadrature.
 IPart=  4 Atom number   5 atomic number  7 has       23416 grid points.
 IPart=  7 Atom number   5 atomic number  7 has       23416 grid points.
 IPart=  4 Atom   5 batch    8 overlaps   10 atoms,   115 shells and    10 DB shells.   NGrid=      1180
 IPart=  7 Atom   5 batch    6 overlaps   10 atoms,   115 shells and    10 DB shells.   NGrid=      1180
 Symmetry reduced   590 angular points to   590 for atom    5.
 Symmetry reduced   590 angular points to   590 for atom    5.
 IPart=  0 Atom   5 batch    9 overlaps   10 atoms,   115 shells and    10 DB shells.   NGrid=      1180
 IPart=  2 Atom   5 batch   10 overlaps   10 atoms,   115 shells and    10 DB shells.   NGrid=      1180
 IPart=  7 Atom   5 batch   11 overlaps   10 atoms,   115 shells and    10 DB shells.   NGrid=      1180
 IPart=  3 Atom   5 batch   12 overlaps   10 atoms,   114 shells and    10 DB shells.   NGrid=       590
 IPart=  4 Atom   5 batch   13 overlaps   10 atoms,   114 shells and    10 DB shells.   NGrid=       604
 Symmetry reduced   302 angular points to   302 for atom    5.
 IPart=  3 Atom   5 batch   14 overlaps   10 atoms,   114 shells and    10 DB shells.   NGrid=       604
 Symmetry reduced   302 angular points to   302 for atom    5.
 IPart=  4 Atom   5 batch   15 overlaps   10 atoms,   112 shells and    10 DB shells.   NGrid=       604
 IPart=  6 Atom   5 batch   16 overlaps   10 atoms,   108 shells and    10 DB shells.   NGrid=       604
 IPart=  5 Atom   5 batch   17 overlaps   10 atoms,   104 shells and    10 DB shells.   NGrid=       604
 Symmetry reduced   302 angular points to   302 for atom    5.
 IPart=  4 Atom   5 batch   18 overlaps   10 atoms,    86 shells and    10 DB shells.   NGrid=       604
 IPart=  2 Atom   5 batch   19 overlaps   10 atoms,    64 shells and    10 DB shells.   NGrid=       604
 Symmetry reduced   302 angular points to   302 for atom    5.
 IPart=  1 Atom   5 batch   20 overlaps   10 atoms,    44 shells and     9 DB shells.   NGrid=       604
 Symmetry reduced   302 angular points to   302 for atom    5.
 IPart=  7 Atom   5 batch   21 overlaps   10 atoms,    27 shells and     5 DB shells.   NGrid=       604
 Symmetry reduced   302 angular points to   302 for atom    5.
 IPart=  3 Atom   5 batch   22 overlaps   10 atoms,    12 shells and     0 DB shells.   NGrid=       604
 IPart=  5 Atom   5 batch   23 overlaps   10 atoms,     4 shells and     0 DB shells.   NGrid=       302
 Pruned (  99, 590) grid will be used in numerical quadrature.
 IPart=  0 Atom number   6 atomic number  1 has       23466 grid points.
 IPart=  0 Atom   6 batch    1 overlaps   10 atoms,   102 shells and    10 DB shells.   NGrid=      2838
 Symmetry reduced    86 angular points to    86 for atom    6.
 Pruned (  99, 590) grid will be used in numerical quadrature.
 IPart=  5 Atom number   6 atomic number  1 has       23466 grid points.
 IPart=  5 Atom   6 batch    2 overlaps   10 atoms,   102 shells and    10 DB shells.   NGrid=      1552
 Symmetry reduced   194 angular points to   194 for atom    6.
 Pruned (  99, 590) grid will be used in numerical quadrature.
 IPart=  6 Atom number   6 atomic number  1 has       23466 grid points.
 IPart=  6 Atom   6 batch    3 overlaps   10 atoms,   104 shells and    10 DB shells.   NGrid=      2416
 Symmetry reduced   302 angular points to   302 for atom    6.
 Pruned (  99, 590) grid will be used in numerical quadrature.
 Pruned (  99, 590) grid will be used in numerical quadrature.
 IPart=  7 Atom number   6 atomic number  1 has       23466 grid points.
 IPart=  3 Atom number   6 atomic number  1 has       23466 grid points.
 IPart=  7 Atom   6 batch    5 overlaps   10 atoms,   107 shells and    10 DB shells.   NGrid=      1180
 IPart=  3 Atom   6 batch    4 overlaps   10 atoms,   105 shells and    10 DB shells.   NGrid=      1180
 Pruned (  99, 590) grid will be used in numerical quadrature.
 Symmetry reduced   590 angular points to   590 for atom    6.
 Symmetry reduced   590 angular points to   590 for atom    6.
 IPart=  1 Atom number   6 atomic number  1 has       23466 grid points.
 IPart=  1 Atom   6 batch    6 overlaps   10 atoms,   107 shells and    10 DB shells.   NGrid=      1180
 Symmetry reduced   590 angular points to   590 for atom    6.
 Pruned (  99, 590) grid will be used in numerical quadrature.
 IPart=  2 Atom number   6 atomic number  1 has       23466 grid points.
 IPart=  2 Atom   6 batch    7 overlaps   10 atoms,   109 shells and    10 DB shells.   NGrid=      1180
 Symmetry reduced   590 angular points to   590 for atom    6.
 Pruned (  99, 590) grid will be used in numerical quadrature.
 IPart=  4 Atom number   6 atomic number  1 has       23466 grid points.
 IPart=  4 Atom   6 batch    8 overlaps   10 atoms,   109 shells and    10 DB shells.   NGrid=      1180
 Symmetry reduced   590 angular points to   590 for atom    6.
 IPart=  3 Atom   6 batch    9 overlaps   10 atoms,   111 shells and    10 DB shells.   NGrid=      1180
 IPart=  7 Atom   6 batch   10 overlaps   10 atoms,   114 shells and    10 DB shells.   NGrid=      1180
 IPart=  1 Atom   6 batch   11 overlaps   10 atoms,   115 shells and    10 DB shells.   NGrid=      1180
 IPart=  2 Atom   6 batch   12 overlaps   10 atoms,   115 shells and    10 DB shells.   NGrid=      1180
 IPart=  5 Atom   6 batch   13 overlaps   10 atoms,   115 shells and    10 DB shells.   NGrid=       604
 Symmetry reduced   302 angular points to   302 for atom    6.
[...]
   A15        2.17585   0.00000   0.00000   0.00000   0.00000   2.17585
    D1       -0.00000   0.00000   0.00000  -0.00000   0.00000   0.00000
    D2        3.14159  -0.00000   0.00000   0.00000   0.00000   3.14159
    D3        3.14159   0.00000   0.00000  -0.00000   0.00000   3.14159
    D4       -0.00000   0.00000   0.00000   0.00000   0.00000   0.00000
    D5       -0.00000   0.00000   0.00000   0.00000   0.00000   0.00000
    D6        3.14159  -0.00000   0.00000  -0.00000   0.00000   3.14159
    D7        3.14159   0.00000   0.00000   0.00000   0.00000   3.14159
    D8       -0.00000  -0.00000   0.00000  -0.00000   0.00000   0.00000
    D9        0.00000  -0.00000   0.00000  -0.00000   0.00000   0.00000
   D10        3.14159  -0.00000   0.00000  -0.00000   0.00000   3.14159
   D11        3.14159  -0.00000   0.00000  -0.00000   0.00000   3.14159
   D12        0.00000   0.00000   0.00000  -0.00000   0.00000   0.00000
   D13       -0.00000   0.00000   0.00000   0.00000   0.00000   0.00000
   D14        3.14159   0.00000   0.00000   0.00000   0.00000   3.14159
   D15        3.14159   0.00000   0.00000   0.00000   0.00000   3.14159
   D16       -0.00000  -0.00000   0.00000   0.00000   0.00000   0.00000
   D17        0.00000  -0.00000   0.00000  -0.00000   0.00000   0.00000
   D18        3.14159  -0.00000   0.00000  -0.00000   0.00000   3.14159
   D19        3.14159  -0.00000   0.00000  -0.00000   0.00000   3.14159
   D20        0.00000   0.00000   0.00000   0.00000   0.00000   0.00000
         Item               Value     Threshold  Converged?
 Maximum Force            0.000001     0.000002     YES
 RMS     Force            0.000000     0.000001     YES
 Maximum Displacement     0.000002     0.000006     YES
 RMS     Displacement     0.000001     0.000004     YES
 Predicted change in Energy=-1.384875D-12
 Optimization completed.
    -- Stationary point found.
                           ----------------------------
                           !   Optimized Parameters   !
                           ! (Angstroms and Degrees)  !
 --------------------------                            --------------------------
 ! Name  Definition              Value          Derivative Info.                !
 --------------------------------------------------------------------------------
 ! R1    R(1,2)                  1.3355         -DE/DX =    0.0                 !
 ! R2    R(1,5)                  1.3799         -DE/DX =    0.0                 !
 ! R3    R(1,6)                  1.0657         -DE/DX =    0.0                 !
 ! R4    R(2,3)                  1.3799         -DE/DX =    0.0                 !
 ! R5    R(2,7)                  1.0657         -DE/DX =    0.0                 !
 ! R6    R(3,4)                  1.309          -DE/DX =    0.0                 !
 ! R7    R(3,8)                  0.9953         -DE/DX =    0.0                 !
 ! R8    R(4,5)                  1.309          -DE/DX =    0.0                 !
 ! R9    R(4,9)                  1.0683         -DE/DX =    0.0                 !
 ! R10   R(5,10)                 0.9953         -DE/DX =    0.0                 !
 ! A1    A(2,1,5)              106.5095         -DE/DX =    0.0                 !
 ! A2    A(2,1,6)              131.1471         -DE/DX =    0.0                 !
 ! A3    A(5,1,6)              122.3433         -DE/DX =    0.0                 !
 ! A4    A(1,2,3)              106.5095         -DE/DX =    0.0                 !
 ! A5    A(1,2,7)              131.1471         -DE/DX =    0.0                 !
 ! A6    A(3,2,7)              122.3433         -DE/DX =    0.0                 !
 ! A7    A(2,3,4)              109.4209         -DE/DX =    0.0                 !
 ! A8    A(2,3,8)              125.9119         -DE/DX =    0.0                 !
 ! A9    A(4,3,8)              124.6673         -DE/DX =    0.0                 !
 ! A10   A(3,4,5)              108.1392         -DE/DX =    0.0                 !
 ! A11   A(3,4,9)              125.9304         -DE/DX =    0.0                 !
 ! A12   A(5,4,9)              125.9304         -DE/DX =    0.0                 !
 ! A13   A(1,5,4)              109.4209         -DE/DX =    0.0                 !
 ! A14   A(1,5,10)             125.9119         -DE/DX =    0.0                 !
 ! A15   A(4,5,10)             124.6673         -DE/DX =    0.0                 !
 ! D1    D(5,1,2,3)              0.0            -DE/DX =    0.0                 !
 ! D2    D(5,1,2,7)            180.0            -DE/DX =    0.0                 !
 ! D3    D(6,1,2,3)            180.0            -DE/DX =    0.0                 !
 ! D4    D(6,1,2,7)              0.0            -DE/DX =    0.0                 !
 ! D5    D(2,1,5,4)              0.0            -DE/DX =    0.0                 !
 ! D6    D(2,1,5,10)           180.0            -DE/DX =    0.0                 !
 ! D7    D(6,1,5,4)            180.0            -DE/DX =    0.0                 !
 ! D8    D(6,1,5,10)             0.0            -DE/DX =    0.0                 !
 ! D9    D(1,2,3,4)              0.0            -DE/DX =    0.0                 !
 ! D10   D(1,2,3,8)            180.0            -DE/DX =    0.0                 !
 ! D11   D(7,2,3,4)            180.0            -DE/DX =    0.0                 !
 ! D12   D(7,2,3,8)              0.0            -DE/DX =    0.0                 !
 ! D13   D(2,3,4,5)              0.0            -DE/DX =    0.0                 !
 ! D14   D(2,3,4,9)            180.0            -DE/DX =    0.0                 !
 ! D15   D(8,3,4,5)            180.0            -DE/DX =    0.0                 !
 ! D16   D(8,3,4,9)              0.0            -DE/DX =    0.0                 !
 ! D17   D(3,4,5,1)              0.0            -DE/DX =    0.0                 !
 ! D18   D(3,4,5,10)           180.0            -DE/DX =    0.0                 !
 ! D19   D(9,4,5,1)            180.0            -DE/DX =    0.0                 !
 ! D20   D(9,4,5,10)             0.0            -DE/DX =    0.0                 !
 --------------------------------------------------------------------------------
 GradGradGradGradGradGradGradGradGradGradGradGradGradGradGradGradGradGrad

 Leave Link  103 at Sun Sep 28 21:20:41 2025, MaxMem=  1572864000 cpu:               0.3 elap:               0.1
 (Enter /software/sse/easybuild/prefix/software/Gaussian/16.C.01-avx2-nsc1/g16/l9999.exe)

 ----------------------------------------------------------------------

 Electric dipole moment (input orientation):
 (Debye = 10**-18 statcoulomb cm , SI units = C m)
                  (au)            (Debye)         (10**-30 SI)
   Tot        0.671476D+00      0.170672D+01      0.569301D+01
   x         -0.635542D+00     -0.161539D+01     -0.538835D+01
   y          0.216718D+00      0.550842D+00      0.183741D+01
   z          0.000000D+00      0.000000D+00      0.000000D+00

 Dipole polarizability, Alpha (input orientation).
 (esu units = cm**3 , SI units = C**2 m**2 J**-1)
 Alpha(0;0):
               (au)            (10**-24 esu)      (10**-40 SI)
   iso        0.397783D+02      0.589454D+01      0.655856D+01
   aniso      0.196166D+02      0.290688D+01      0.323435D+01
   xx         0.465376D+02      0.689616D+01      0.767302D+01
   yx        -0.171661D+00     -0.254375D-01     -0.283031D-01
   yy         0.460928D+02      0.683024D+01      0.759967D+01
   zx         0.000000D+00      0.000000D+00      0.000000D+00
   zy         0.000000D+00      0.000000D+00      0.000000D+00
   zz         0.267046D+02      0.395721D+01      0.440299D+01

 First dipole hyperpolarizability, Beta (input orientation).
 ||, _|_  parallel and perpendicular components, (z) with respect to z axis,
 vector components x,y,z.  Values do not include the 1/n! factor of 1/2.
 (esu units = statvolt**-1 cm**4 , SI units = C**3 m**3 J**-2)
 Beta(0;0,0):
               (au)            (10**-30 esu)      (10**-50 SI)
   || (z)     0.000000D+00      0.000000D+00      0.000000D+00
   _|_(z)     0.000000D+00      0.000000D+00      0.000000D+00
   x         -0.152558D+03     -0.131799D+01     -0.489157D+00
   y          0.520219D+02      0.449429D+00      0.166801D+00
   z          0.000000D+00      0.000000D+00      0.000000D+00
   ||         0.322368D+02      0.278501D+00      0.103363D+00
   xxx       -0.702242D+02     -0.606682D+00     -0.225164D+00
   xxy        0.386421D+02      0.333838D+00      0.123901D+00
   yxy        0.586593D+01      0.506771D-01      0.188083D-01
   yyy       -0.166961D+02     -0.144242D+00     -0.535338D-01
   xxz        0.000000D+00      0.000000D+00      0.000000D+00
   yxz        0.000000D+00      0.000000D+00      0.000000D+00
   yyz        0.000000D+00      0.000000D+00      0.000000D+00
   zxz        0.135055D+02      0.116677D+00      0.433034D-01
   zyz       -0.460532D+01     -0.397864D-01     -0.147663D-01
   zzz        0.000000D+00      0.000000D+00      0.000000D+00

 ----------------------------------------------------------------------

 Dipole orientation:
     6          0.40728125          1.19438393         -1.83930805
     6         -0.40727215         -1.19435724         -1.83930805
     7         -0.64643920         -1.89573321          0.66084863
     6          0.00000455          0.00001334          2.11235049
     7          0.64644830          1.89575990          0.66084863
     1          0.83495828          2.44858006         -3.35578915
     1         -0.83494918         -2.44855337         -3.35578915
     1         -1.21899876         -3.57480862          1.28565857
     1          0.00000455          0.00001334          4.13113215
     1          1.21900786          3.57483530          1.28565857

 Electric dipole moment (dipole orientation):
 (Debye = 10**-18 statcoulomb cm , SI units = C m)
                  (au)            (Debye)         (10**-30 SI)
   Tot        0.671476D+00      0.170672D+01      0.569301D+01
   x          0.000000D+00      0.000000D+00      0.000000D+00
   y          0.000000D+00      0.000000D+00      0.000000D+00
   z          0.671476D+00      0.170672D+01      0.569301D+01

 Dipole polarizability, Alpha (dipole orientation).
 (esu units = cm**3 , SI units = C**2 m**2 J**-1)
 Alpha(0;0):
               (au)            (10**-24 esu)      (10**-40 SI)
   iso        0.397783D+02      0.589454D+01      0.655856D+01
   aniso      0.196166D+02      0.290688D+01      0.323435D+01
   xx         0.287181D+02      0.425558D+01      0.473497D+01
   yx         0.590474D+01      0.874993D+00      0.973561D+00
   yy         0.440207D+02      0.652320D+01      0.725804D+01
   zx         0.000000D+00      0.000000D+00      0.000000D+00
   zy         0.000000D+00      0.000000D+00      0.000000D+00
   zz         0.465962D+02      0.690484D+01      0.768267D+01

 First dipole hyperpolarizability, Beta (dipole orientation).
 ||, _|_  parallel and perpendicular components, (z) with respect to z axis,
 vector components x,y,z.  Values do not include the 1/n! factor of 1/2.
 (esu units = statvolt**-1 cm**4 , SI units = C**3 m**3 J**-2)
 Beta(0;0,0):
               (au)            (10**-30 esu)      (10**-50 SI)
   || (z)     0.322368D+02      0.278501D+00      0.103363D+00
   _|_(z)     0.107456D+02      0.928337D-01      0.344543D-01
   x          0.000000D+00      0.000000D+00      0.000000D+00
   y          0.000000D+00      0.000000D+00      0.000000D+00
   z          0.161184D+03      0.139251D+01      0.516815D+00
   ||         0.322368D+02      0.278501D+00      0.103363D+00
   xxx        0.000000D+00      0.000000D+00      0.000000D+00
   xxy        0.000000D+00      0.000000D+00      0.000000D+00
   yxy        0.000000D+00      0.000000D+00      0.000000D+00
   yyy        0.000000D+00      0.000000D+00      0.000000D+00
   xxz       -0.151542D+02     -0.130921D+00     -0.485900D-01
   yxz       -0.259584D+01     -0.224261D-01     -0.832321D-02
   yyz       -0.218816D+02     -0.189040D+00     -0.701603D-01
   zxz        0.000000D+00      0.000000D+00      0.000000D+00
   zyz        0.000000D+00      0.000000D+00      0.000000D+00
   zzz        0.907639D+02      0.784129D+00      0.291022D+00

 ----------------------------------------------------------------------

 Test job not archived.
 1\1\NSC-N172\Freq\RHF\Aug-CC-pVTZ\C3H5N2(1+)\X_DAVVA\28-Sep-2025\0\\#P
  Geom=AllCheck Guess=TCheck SCRF=Check Test GenChk RHF/Aug-CC-pVTZ Fre
 q\\imidazolium\\1,1\C,1.1367564443,0.3179033089,0.\C,0.7057133465,-0.9
 461640835,0.\N,-0.6730723402,-0.8903117472,0.\C,-1.0579856216,0.360777
 7292,0.\N,0.0110942632,1.1160600023,0.\H,2.1226153539,0.7225938398,0.\
 H,1.2389383825,-1.8688575735,0.\H,-1.2889989797,-1.6721282091,0.\H,-2.
 0691089356,0.7055676733,0.\H,0.0011385608,2.1113004201,0.\\Version=ES6
 4L-G16RevC.01\State=1-A1\HF=-225.2817473\RMSD=4.916e-09\RMSF=2.687e-07
 \ZeroPoint=0.0911523\Thermal=0.0947085\ETot=-225.1870388\HTot=-225.186
 0946\GTot=-225.2161694\Dipole=-0.6355416,0.2167177,0.\DipoleDeriv=0.09
 09192,-0.1972009,0.,0.1444107,0.1514501,0.,0.,0.,-0.0437107,0.1390463,
 0.2067733,0.,-0.1348383,0.1033231,0.,0.,0.,-0.0437107,-0.2080574,-0.23
 78616,0.,-0.1050536,-0.5609195,0.,0.,0.,-0.215034,0.1951151,0.1932514,
 0.,0.1932515,0.6959417,0.,0.,0.,0.2590199,-0.1739097,-0.0608054,0.,-0.
 1936134,-0.5950672,0.,0.,0.,-0.215034,0.1517311,0.0289624,0.,0.0211867
 ,0.1100864,0.,0.,0.,0.2030592,0.111931,-0.0303859,0.,-0.0226102,0.1498
 865,0.,0.,0.,0.2030592,0.2766406,0.103496,0.,0.1024478,0.3811059,0.,0.
 ,0.,0.3364576,0.2005594,-0.0301315,0.,-0.0301315,0.1224711,0.,0.,0.,0.
 1794359,0.2160246,0.0239021,0.,0.0249504,0.4417219,0.,0.,0.,0.3364576\
 Polar=46.5376272,-0.171661,46.0927538,0.,0.,26.7045963\PolarDeriv=-0.2
 754439,2.7282614,1.8144091,0.,0.,1.991972,10.0460363,-2.8704288,6.1600
 763,0.,0.,3.8935054,0.,0.,0.,3.4583704,3.1388042,0.,-8.637747,0.956536
 ,-0.0450768,0.,0.,-0.8017701,-7.6989198,0.7169078,-6.0711589,0.,0.,-4.
 2993606,0.,0.,0.,0.8202159,-4.597789,0.,8.8411142,-1.3197946,-1.432324
 3,0.,0.,-0.2725532,-5.1298042,0.9021108,-0.8238605,0.,0.,-1.4431241,0.
 ,0.,0.,-0.4162144,-1.4744777,0.,-7.9578985,2.5187881,-2.2928957,0.,0.,
 -1.6670281,3.2406516,-0.1759757,0.2548371,0.,0.,0.5684497,0.,0.,0.,-4.
 2592546,1.4523926,0.,7.6593909,-4.8016352,1.8433118,0.,0.,0.6659095,-0
 .3591466,1.3636704,0.5460442,0.,0.,1.3089908,0.,0.,0.,0.5713333,1.4215
 826,0.,7.4717729,2.016269,1.6739503,0.,0.,1.0119045,1.8435679,1.664395
 3,1.7878768,0.,0.,0.2702821,0.,0.,0.,0.1240094,-0.2797894,0.,2.5278376
 ,-2.350416,2.4938872,0.,0.,0.6359617,-2.2195319,2.3808106,-6.2429691,0
 .,0.,-0.8321994,0.,0.,0.,0.2691123,0.1457361,0.,-2.72105,-2.3332962,-2
 .4682301,0.,0.,-0.5276182,-2.4740512,-2.2744672,-4.7560659,0.,0.,-0.77
 08188,0.,0.,0.,-0.454343,-0.4114357,0.,-7.3031095,1.6981538,-1.5009807
 ,0.,0.,-1.0900182,1.6342546,-1.6883696,1.3679136,0.,0.,0.3716934,0.,0.
 ,0.,-0.0049059,0.0016731,0.,0.395134,0.8871321,-0.0860543,0.,0.,0.0532
 361,1.1169432,-0.0186534,7.7773073,0.,0.,0.9325817,0.,0.,0.,-0.1083205
 ,0.6033022,0.\HyperPolar=-70.2241603,38.6420921,5.8659316,-16.6961338,
 0.,0.,0.,13.5054571,-4.6053194,0.\Quadrupole=2.8342267,4.7442336,-7.57
 84603,0.7370046,0.,0.\PG=C02V [C2(C1H1),SGV(C2H4N2)]\NImag=0\\0.909137
 22,0.21333769,0.80844609,0.,0.,0.15713641,-0.17211223,-0.10861832,0.,0
 .66518230,-0.12159219,-0.47041680,0.,-0.10277676,1.05240102,0.,0.,-0.0
 8632198,0.,0.,0.15713641,-0.05857733,-0.09225488,0.,-0.28898638,0.0169
 7417,0.,0.82505956,-0.01544460,-0.02182793,0.,-0.00169966,-0.15304514,
 0.,0.17464474,1.06894309,0.,0.,0.01440308,0.,0.,-0.07041275,0.,0.,0.13
 013704,-0.10448756,0.03632734,0.,-0.05744317,0.02359132,0.,-0.19255671
 ,0.10785992,0.,1.06796794,-0.03736836,0.02019885,0.,0.09728701,-0.0268
 4555,0.,0.08102117,-0.42933430,0.,-0.09081653,0.83260957,0.,0.,0.01710
 585,0.,0.,0.01710585,0.,0.,-0.08832334,0.,0.,0.19220636,-0.24563232,0.
 05447812,0.,0.00723101,0.06982923,0.,-0.01578515,-0.08382221,0.,-0.372
 29348,-0.12504127,0.,0.74715110,0.07315195,-0.19639920,0.,-0.00698106,
 -0.08763628,0.,-0.00221824,-0.12727553,0.,-0.15188002,-0.24959751,0.,0
 .07369171,1.14685155,0.,0.,-0.07041275,0.,0.,0.01440308,0.,0.,0.017801
 17,0.,0.,-0.08832334,0.,0.,0.13013704,-0.35119338,-0.11764451,0.,0.003
 49318,0.00068840,0.,0.00276556,-0.00015218,0.,-0.00084753,0.00544557,0
 .,-0.01764699,-0.01097029,0.,0.36330758,-0.12755991,-0.12450820,0.,-0.
 02477960,0.00461238,0.,-0.00375730,-0.00590887,0.,0.00425949,-0.006428
 32,0.,0.02895611,0.01644913,0.,0.12380711,0.11275738,0.,0.,-0.03829247
 ,0.,0.,0.00388368,0.,0.,0.00716258,0.,0.,0.00295076,0.,0.,-0.00173219,
 0.,0.,0.02793559,0.01556316,-0.00913944,0.,-0.14798176,0.13575975,0.,-
 0.01361937,0.03417505,0.,-0.00762470,-0.00452229,0.,0.00141862,-0.0055
 0266,0.,-0.00012785,0.00069393,0.,0.15002247,0.01632856,-0.00745759,0.
 ,0.14567516,-0.32771982,0.,-0.00575135,0.01242152,0.,-0.00333621,0.000
 34885,0.,-0.00189754,-0.00456192,0.,-0.00047177,0.00016002,0.,-0.15256
 569,0.32604249,0.,0.,0.00388368,0.,0.,-0.03829247,0.,0.,-0.00173219,0.
 ,0.,0.00295076,0.,0.,0.00716258,0.,0.,-0.00394414,0.,0.,0.02793559,-0.
 00887596,0.00168004,0.,-0.00472221,-0.02880373,0.,-0.25487363,-0.20761
 731,0.,0.01949422,0.00851865,0.,0.00218671,0.00948995,0.,0.00039658,-0
 .00124391,0.,0.00082164,0.00100959,0.,0.24414661,0.00439906,0.00255387
 ,0.,0.00062142,0.01427859,0.,-0.20175532,-0.34827578,0.,-0.02580731,-0
 .01706897,0.,0.00545346,-0.00466395,0.,-0.00018028,0.00084653,0.,-0.00
 014570,0.00016168,0.,0.21741033,0.35148244,0.,0.,0.00279878,0.,0.,-0.0
 0467560,0.,0.,-0.01983475,0.,0.,-0.00412089,0.,0.,0.00530746,0.,0.,0.0
 0169163,0.,0.,-0.00133607,0.,0.,0.02077368,0.00017732,-0.00564047,0.,0
 .00288916,0.00021245,0.,0.00417153,-0.00071819,0.,-0.36641755,0.098132
 47,0.,-0.01489403,0.01158116,0.,-0.00030462,0.00063043,0.,0.00027442,0
 .00007931,0.,0.00019655,0.00086196,0.,0.37377461,-0.00330151,-0.004144
 41,0.,-0.00212650,-0.00685624,0.,0.03628613,-0.00081789,0.,0.09813247,
 -0.11209932,0.,-0.02542315,0.01824767,0.,-0.00067101,0.00119409,0.,0.0
 0138074,0.00061504,0.,-0.00023807,0.00083371,0.,-0.10481822,0.10212972
 ,0.,0.,0.00437499,0.,0.,0.00437499,0.,0.,0.00549171,0.,0.,-0.04743114,
 0.,0.,0.00549171,0.,0.,0.00168065,0.,0.,0.00168065,0.,0.,-0.00347386,0
 .,0.,0.03128416,0.01600107,0.02747444,0.,-0.00754990,0.00611735,0.,-0.
 00759809,-0.00722559,0.,0.01420854,-0.03265643,0.,-0.09173548,0.009637
 53,0.,0.00015746,-0.00100634,0.,0.00125336,0.00092994,0.,0.00122951,-0
 .00085761,0.,0.00013262,0.00077912,0.,0.07390092,-0.00195070,-0.006444
 68,0.,0.00339833,0.00122782,0.,-0.00318909,0.00512085,0.,0.00166952,-0
 .01178330,0.,0.00377554,-0.51141394,0.,0.00014896,0.00082585,0.,-0.000
 13369,-0.00001026,0.,-0.00020556,-0.00014813,0.,-0.00032090,0.00089764
 ,0.,-0.00319241,0.52172814,0.,0.,-0.00467560,0.,0.,0.00279878,0.,0.,0.
 00530746,0.,0.,-0.00412089,0.,0.,-0.01983475,0.,0.,-0.00133607,0.,0.,0
 .00169163,0.,0.,0.00286961,0.,0.,-0.00347386,0.,0.,0.02077368\\0.00000
 028,-0.00000082,0.,0.00000072,0.00000048,0.,-0.00000054,-0.00000017,0.
 ,-0.00000005,0.00000002,0.,-0.00000032,0.00000046,0.,0.,-0.00000007,0.
 ,0.00000004,0.00000006,0.,-0.00000001,0.00000009,0.,-0.00000006,0.0000
 0002,0.,-0.00000006,-0.00000006,0.\\\@


            THE IRISH PIG
 'TWAS AN EVENING IN NOVEMBER,
 AS I VERY WELL REMEMBER
 I WAS STROLLING DOWN THE STREET IN DRUNKEN PRIDE,
 BUT MY KNEES WERE ALL A'FLUTTER
 SO I LANDED IN THE GUTTER,
 AND A PIG CAME UP AND LAY DOWN BY MY SIDE.

 YES, I LAY THERE IN THE GUTTER
 THINKING THOUGHTS I COULD NOT UTTER
 WHEN A COLLEEN PASSING BY DID SOFTLY SAY,
 'YE CAN TELL A MAN THAT BOOZES
 BY THE COMPANY THAT HE CHOOSES.' -
 AT THAT, THE PIG GOT UP AND WALKED AWAY!
     -- THE ECONOMIST, AUGUST 23, 1986
 Job cpu time:       0 days  0 hours 43 minutes  6.5 seconds.
 Elapsed time:       0 days  0 hours  5 minutes 26.0 seconds.
 File lengths (MBytes):  RWF=     97 Int=      0 D2E=      0 Chk=     16 Scr=      1
 Normal termination of Gaussian 16 at Sun Sep 28 21:20:41 2025.
