 Entering Gaussian System, Link 0=/software/sse/easybuild/prefix/software/Gaussian/16.C.01-avx2-nsc1/g16/g16.orig
 Input=imidazole.wrap
 Output=imidazole.log
 Initial command:
 /software/sse/easybuild/prefix/software/Gaussian/16.C.01-avx2-nsc1/g16/l1.exe "/scratch/local/Gau-1311955.inp" -scrdir="/scratch/local/"
 Entering Link 1 = /software/sse/easybuild/prefix/software/Gaussian/16.C.01-avx2-nsc1/g16/l1.exe PID=   1311956.
  
 Copyright (c) 1988-2019, Gaussian, Inc.  All Rights Reserved.
  
 This is part of the Gaussian(R) 16 program.  It is based on
 the Gaussian(R) 09 system (copyright 2009, Gaussian, Inc.),
 the Gaussian(R) 03 system (copyright 2003, Gaussian, Inc.),
 the Gaussian(R) 98 system (copyright 1998, Gaussian, Inc.),
 the Gaussian(R) 94 system (copyright 1995, Gaussian, Inc.),
 the Gaussian 92(TM) system (copyright 1992, Gaussian, Inc.),
 the Gaussian 90(TM) system (copyright 1990, Gaussian, Inc.),
 the Gaussian 88(TM) system (copyright 1988, Gaussian, Inc.),
 the Gaussian 86(TM) system (copyright 1986, Carnegie Mellon
 University), and the Gaussian 82(TM) system (copyright 1983,
 Carnegie Mellon University). Gaussian is a federally registered
 trademark of Gaussian, Inc.
  
 This software contains proprietary and confidential information,
 including trade secrets, belonging to Gaussian, Inc.
  
 This software is provided under written license and may be
 used, copied, transmitted, or stored only in accord with that
 written license.
  
 The following legend is applicable only to US Government
 contracts under FAR:
  
                    RESTRICTED RIGHTS LEGEND
  
 Use, reproduction and disclosure by the US Government is
 subject to restrictions as set forth in subparagraphs (a)
 and (c) of the Commercial Computer Software - Restricted
 Rights clause in FAR 52.227-19.
  
 Gaussian, Inc.
 340 Quinnipiac St., Bldg. 40, Wallingford CT 06492
  
  
 ---------------------------------------------------------------
 Warning -- This program may not be used in any manner that
 competes with the business of Gaussian, Inc. or will provide
 assistance to any competitor of Gaussian, Inc.  The licensee
 of this program is prohibited from giving any competitor of
 Gaussian, Inc. access to this program.  By using this program,
 the user acknowledges that Gaussian, Inc. is engaged in the
 business of creating and licensing software in the field of
 computational chemistry and represents and warrants to the
 licensee that it is not a competitor of Gaussian, Inc. and that
 it will not use this program in any manner prohibited above.
 ---------------------------------------------------------------
  

 Cite this work as:
 Gaussian 16, Revision C.01,
 M. J. Frisch, G. W. Trucks, H. B. Schlegel, G. E. Scuseria, 
 M. A. Robb, J. R. Cheeseman, G. Scalmani, V. Barone, 
 G. A. Petersson, H. Nakatsuji, X. Li, M. Caricato, A. V. Marenich, 
 J. Bloino, B. G. Janesko, R. Gomperts, B. Mennucci, H. P. Hratchian, 
 J. V. Ortiz, A. F. Izmaylov, J. L. Sonnenberg, D. Williams-Young, 
 F. Ding, F. Lipparini, F. Egidi, J. Goings, B. Peng, A. Petrone, 
 T. Henderson, D. Ranasinghe, V. G. Zakrzewski, J. Gao, N. Rega, 
 G. Zheng, W. Liang, M. Hada, M. Ehara, K. Toyota, R. Fukuda, 
 J. Hasegawa, M. Ishida, T. Nakajima, Y. Honda, O. Kitao, H. Nakai, 
 T. Vreven, K. Throssell, J. A. Montgomery, Jr., J. E. Peralta, 
 F. Ogliaro, M. J. Bearpark, J. J. Heyd, E. N. Brothers, K. N. Kudin, 
 V. N. Staroverov, T. A. Keith, R. Kobayashi, J. Normand, 
 K. Raghavachari, A. P. Rendell, J. C. Burant, S. S. Iyengar, 
 J. Tomasi, M. Cossi, J. M. Millam, M. Klene, C. Adamo, R. Cammi, 
 J. W. Ochterski, R. L. Martin, K. Morokuma, O. Farkas, 
 J. B. Foresman, and D. J. Fox, Gaussian, Inc., Wallingford CT, 2019.
 
 ******************************************
 Gaussian 16:  ES64L-G16RevC.01  3-Jul-2019
                30-Sep-2025 
 ******************************************
 %mem=12000MB
 %nprocshared=16
 Will use up to   16 processors via shared memory.
 %mem=32Gb
 %chk=imidazole.chk
 ----------------------------------------------------------------------
 #P HF/aug-cc-pvtz Opt=tight Pop=(MK,Hirshfeld) iop(6/33=2) iop(6/42=6)
  maxdisk=128GB
 ----------------------------------------------------------------------
 1/7=10,18=20,19=15,38=1/1,3;
 2/9=110,12=2,17=6,18=5,40=1/2;
 3/5=16,6=1,7=10,11=9,25=1,30=1,71=1/1,2,3;
 4//1;
 5/5=2,38=5/2;
 6/7=2,8=2,9=2,10=2,15=8,20=1,28=1,33=2,42=6,79=1/1,2;
 7//1,2,3,16;
 1/7=10,18=20,19=15/3(2);
 2/9=110/2;
 99//99;
 2/9=110/2;
 3/5=16,6=1,7=10,11=9,25=1,30=1,71=1/1,2,3;
 4/5=5,16=3,69=1/1;
 5/5=2,38=5/2;
 7//1,2,3,16;
 1/7=10,18=20,19=15/3(-5);
 2/9=110/2;
 6/7=2,8=2,9=2,10=2,15=8,19=2,20=1,28=1,33=2,42=6,79=1/1,2;
 99/9=1/99;
 Leave Link    1 at Tue Sep 30 16:58:49 2025, MaxMem=  4294967296 cpu:               0.9 elap:               0.1
 (Enter /software/sse/easybuild/prefix/software/Gaussian/16.C.01-avx2-nsc1/g16/l101.exe)
 ---------
 imidazole
 ---------
 Symbolic Z-matrix:
 Charge =  0 Multiplicity = 1
 C                     1.10752   0.28675   0. 
 H                     2.10058   0.67509   0. 
 C                     0.63014  -0.9734    0. 
 H                     1.18282  -1.8868    0. 
 N                    -0.74036  -0.96211   0. 
 C                    -1.07319   0.28014   0. 
 H                    -2.07412   0.65641   0. 
 N                     0.        1.09251   0. 
 H                    -0.01359   2.08153   0. 
 
 ITRead=  0  0  0  0  0  0  0  0  0
 MicOpt= -1 -1 -1 -1 -1 -1 -1 -1 -1
 NAtoms=      9 NQM=        9 NQMF=       0 NMMI=      0 NMMIF=      0
                NMic=       0 NMicF=      0.
                    Isotopes and Nuclear Properties:
 (Nuclear quadrupole moments (NQMom) in fm**2, nuclear magnetic moments (NMagM)
  in nuclear magnetons)

  Atom         1           2           3           4           5           6           7           8           9
 IAtWgt=          12           1          12           1          14          12           1          14           1
 AtmWgt=  12.0000000   1.0078250  12.0000000   1.0078250  14.0030740  12.0000000   1.0078250  14.0030740   1.0078250
 NucSpn=           0           1           0           1           2           0           1           2           1
 AtZEff=  -0.0000000  -0.0000000  -0.0000000  -0.0000000  -0.0000000  -0.0000000  -0.0000000  -0.0000000  -0.0000000
 NQMom=    0.0000000   0.0000000   0.0000000   0.0000000   2.0440000   0.0000000   0.0000000   2.0440000   0.0000000
 NMagM=    0.0000000   2.7928460   0.0000000   2.7928460   0.4037610   0.0000000   2.7928460   0.4037610   2.7928460
 AtZNuc=   6.0000000   1.0000000   6.0000000   1.0000000   7.0000000   6.0000000   1.0000000   7.0000000   1.0000000
 Leave Link  101 at Tue Sep 30 16:58:50 2025, MaxMem=  4294967296 cpu:               5.1 elap:               0.3
 (Enter /software/sse/easybuild/prefix/software/Gaussian/16.C.01-avx2-nsc1/g16/l103.exe)

 GradGradGradGradGradGradGradGradGradGradGradGradGradGradGradGradGradGrad
 Berny optimization.
 Initialization pass.
                           ----------------------------
                           !    Initial Parameters    !
                           ! (Angstroms and Degrees)  !
 --------------------------                            --------------------------
 ! Name  Definition              Value          Derivative Info.                !
 --------------------------------------------------------------------------------
 ! R1    R(1,2)                  1.0663         estimate D2E/DX2                !
 ! R2    R(1,3)                  1.3475         estimate D2E/DX2                !
 ! R3    R(1,8)                  1.3696         estimate D2E/DX2                !
 ! R4    R(3,4)                  1.0676         estimate D2E/DX2                !
 ! R5    R(3,5)                  1.3705         estimate D2E/DX2                !
 ! R6    R(5,6)                  1.2861         estimate D2E/DX2                !
 ! R7    R(6,7)                  1.0693         estimate D2E/DX2                !
 ! R8    R(6,8)                  1.346          estimate D2E/DX2                !
 ! R9    R(8,9)                  0.9891         estimate D2E/DX2                !
 ! A1    A(2,1,3)              132.1063         estimate D2E/DX2                !
 ! A2    A(2,1,8)              122.6046         estimate D2E/DX2                !
 ! A3    A(3,1,8)              105.2891         estimate D2E/DX2                !
 ! A4    A(1,3,4)              128.0746         estimate D2E/DX2                !
 ! A5    A(1,3,5)              110.2761         estimate D2E/DX2                !
 ! A6    A(4,3,5)              121.6493         estimate D2E/DX2                !
 ! A7    A(3,5,6)              105.4707         estimate D2E/DX2                !
 ! A8    A(5,6,7)              125.601          estimate D2E/DX2                !
 ! A9    A(5,6,8)              112.1258         estimate D2E/DX2                !
 ! A10   A(7,6,8)              122.2732         estimate D2E/DX2                !
 ! A11   A(1,8,6)              106.8382         estimate D2E/DX2                !
 ! A12   A(1,8,9)              126.8245         estimate D2E/DX2                !
 ! A13   A(6,8,9)              126.3373         estimate D2E/DX2                !
 ! D1    D(2,1,3,4)              0.0            estimate D2E/DX2                !
 ! D2    D(2,1,3,5)            180.0            estimate D2E/DX2                !
 ! D3    D(8,1,3,4)            180.0            estimate D2E/DX2                !
 ! D4    D(8,1,3,5)              0.0            estimate D2E/DX2                !
 ! D5    D(2,1,8,6)            180.0            estimate D2E/DX2                !
 ! D6    D(2,1,8,9)              0.0            estimate D2E/DX2                !
 ! D7    D(3,1,8,6)              0.0            estimate D2E/DX2                !
 ! D8    D(3,1,8,9)            180.0            estimate D2E/DX2                !
 ! D9    D(1,3,5,6)              0.0            estimate D2E/DX2                !
 ! D10   D(4,3,5,6)            180.0            estimate D2E/DX2                !
 ! D11   D(3,5,6,7)            180.0            estimate D2E/DX2                !
 ! D12   D(3,5,6,8)              0.0            estimate D2E/DX2                !
 ! D13   D(5,6,8,1)              0.0            estimate D2E/DX2                !
 ! D14   D(5,6,8,9)            180.0            estimate D2E/DX2                !
 ! D15   D(7,6,8,1)            180.0            estimate D2E/DX2                !
 ! D16   D(7,6,8,9)              0.0            estimate D2E/DX2                !
 --------------------------------------------------------------------------------
 Trust Radius=3.00D-01 FncErr=1.00D-07 GrdErr=1.00D-07 EigMax=2.50D+02 EigMin=1.00D-04
 Number of steps in this run=     48 maximum allowed number of steps=    100.
 GradGradGradGradGradGradGradGradGradGradGradGradGradGradGradGradGradGrad

 Leave Link  103 at Tue Sep 30 16:58:50 2025, MaxMem=  4294967296 cpu:               0.2 elap:               0.0
 (Enter /software/sse/easybuild/prefix/software/Gaussian/16.C.01-avx2-nsc1/g16/l202.exe)
                          Input orientation:                          
 ---------------------------------------------------------------------
 Center     Atomic      Atomic             Coordinates (Angstroms)
 Number     Number       Type             X           Y           Z
 ---------------------------------------------------------------------
      1          6           0        1.107520    0.286750    0.000000
      2          1           0        2.100580    0.675090    0.000000
      3          6           0        0.630140   -0.973400    0.000000
      4          1           0        1.182820   -1.886800    0.000000
      5          7           0       -0.740360   -0.962110    0.000000
      6          6           0       -1.073190    0.280140    0.000000
      7          1           0       -2.074120    0.656410    0.000000
      8          7           0        0.000000    1.092510    0.000000
      9          1           0       -0.013590    2.081530    0.000000
 ---------------------------------------------------------------------
                    Distance matrix (angstroms):
                    1          2          3          4          5
     1  C    0.000000
     2  H    1.066291   0.000000
     3  C    1.347542   2.209007   0.000000
     4  H    2.174854   2.721317   1.067593   0.000000
     5  N    2.230317   3.278927   1.370547   2.133934   0.000000
     6  C    2.180720   3.198250   2.114875   3.128132   1.286064
     7  H    3.203043   4.174742   3.157420   4.132260   2.097266
     8  N    1.369617   2.141653   2.159875   3.205519   2.183941
     9  H    2.116158   2.539250   3.122016   4.144761   3.129207
                    6          7          8          9
     6  C    0.000000
     7  H    1.069318   0.000000
     8  N    1.345987   2.119471   0.000000
     9  H    2.089918   2.505344   0.989113   0.000000
 Stoichiometry    C3H4N2
 Framework group  CS[SG(C3H4N2)]
 Deg. of freedom    15
 Full point group                 CS      NOp   2
 Largest Abelian subgroup         CS      NOp   2
 Largest concise Abelian subgroup C1      NOp   1
                         Standard orientation:                         
 ---------------------------------------------------------------------
 Center     Atomic      Atomic             Coordinates (Angstroms)
 Number     Number       Type             X           Y           Z
 ---------------------------------------------------------------------
      1          6           0        1.107520    0.286751    0.000000
      2          1           0        2.100580    0.675091    0.000000
      3          6           0        0.630141   -0.973399    0.000000
      4          1           0        1.182821   -1.886799    0.000000
      5          7           0       -0.740359   -0.962109    0.000000
      6          6           0       -1.073190    0.280141    0.000000
      7          1           0       -2.074120    0.656410    0.000000
      8          7           0       -0.000000    1.092511    0.000000
      9          1           0       -0.013590    2.081531    0.000000
 ---------------------------------------------------------------------
 Rotational constants (GHZ):           9.9449205           9.6958035           4.9093911
 Leave Link  202 at Tue Sep 30 16:58:50 2025, MaxMem=  4294967296 cpu:               0.1 elap:               0.0
 (Enter /software/sse/easybuild/prefix/software/Gaussian/16.C.01-avx2-nsc1/g16/l301.exe)
 Standard basis: Aug-CC-pVTZ (5D, 7F)
 Ernie: Thresh=  0.10000D-02 Tol=  0.10000D-05 Strict=F.
 Ernie:  15 primitive shells out of 194 were deleted.
 There are   257 symmetry adapted cartesian basis functions of A'  symmetry.
 There are   118 symmetry adapted cartesian basis functions of A"  symmetry.
 There are   214 symmetry adapted basis functions of A'  symmetry.
 There are   108 symmetry adapted basis functions of A"  symmetry.
   322 basis functions,   468 primitive gaussians,   375 cartesian basis functions
    18 alpha electrons       18 beta electrons
       nuclear repulsion energy       165.2965095352 Hartrees.
 IExCor=    0 DFT=F Ex=HF Corr=None ExCW=0 ScaHFX=  1.000000
 ScaDFX=  1.000000  1.000000  1.000000  1.000000 ScalE2=  1.000000  1.000000
 IRadAn=      5 IRanWt=     -1 IRanGd=            0 ICorTp=0 IEmpDi=  4
 NAtoms=    9 NActive=    9 NUniq=    9 SFac= 1.00D+00 NAtFMM=   60 NAOKFM=F Big=F
 Integral buffers will be    131072 words long.
 Raffenetti 1 integral format.
 Two-electron integral symmetry is turned on.
 Leave Link  301 at Tue Sep 30 16:58:51 2025, MaxMem=  4294967296 cpu:               0.8 elap:               0.1
 (Enter /software/sse/easybuild/prefix/software/Gaussian/16.C.01-avx2-nsc1/g16/l302.exe)
 NPDir=0 NMtPBC=     1 NCelOv=     1 NCel=       1 NClECP=     1 NCelD=      1
         NCelK=      1 NCelE2=     1 NClLst=     1 CellRange=     0.0.
 One-electron integrals computed using PRISM.
 One-electron integral symmetry used in STVInt
 NBasis=   322 RedAO= T EigKep=  6.37D-06  NBF=   214   108
 NBsUse=   322 1.00D-06 EigRej= -1.00D+00 NBFU=   214   108
 Leave Link  302 at Tue Sep 30 16:58:51 2025, MaxMem=  4294967296 cpu:               2.5 elap:               0.2
 (Enter /software/sse/easybuild/prefix/software/Gaussian/16.C.01-avx2-nsc1/g16/l303.exe)
 DipDrv:  MaxL=1.
 Leave Link  303 at Tue Sep 30 16:58:52 2025, MaxMem=  4294967296 cpu:               0.5 elap:               0.1
 (Enter /software/sse/easybuild/prefix/software/Gaussian/16.C.01-avx2-nsc1/g16/l401.exe)
 ExpMin= 2.53D-02 ExpMax= 1.14D+04 ExpMxC= 3.89D+02 IAcc=3 IRadAn=         5 AccDes= 0.00D+00
 Harris functional with IExCor=  205 and IRadAn=       5 diagonalized for initial guess.
 HarFok:  IExCor=  205 AccDes= 0.00D+00 IRadAn=         5 IDoV= 1 UseB2=F ITyADJ=14
 ICtDFT=  3500011 ScaDFX=  1.000000  1.000000  1.000000  1.000000
 FoFCou: FMM=F IPFlag=           0 FMFlag=      100000 FMFlg1=           0
         NFxFlg=           0 DoJE=T BraDBF=F KetDBF=T FulRan=T
         wScrn=  0.000000 ICntrl=       500 IOpCl=  0 I1Cent=   200000004 NGrid=           0
         NMat0=    1 NMatS0=      1 NMatT0=    0 NMatD0=    1 NMtDS0=    0 NMtDT0=    0
 Petite list used in FoFCou.
 Harris En= -225.174983532326    
 JPrj=0 DoOrth=F DoCkMO=F.
 Initial guess orbital symmetries:
       Occupied  (A') (A') (A') (A') (A') (A') (A') (A') (A') (A')
                 (A') (A') (A') (A") (A') (A') (A") (A")
       Virtual   (A") (A") (A') (A') (A') (A') (A') (A") (A') (A')
                 (A") (A") (A') (A') (A') (A') (A') (A') (A') (A')
                 (A") (A') (A") (A') (A') (A") (A') (A') (A') (A')
                 (A') (A') (A") (A') (A") (A") (A') (A') (A') (A")
                 (A') (A") (A') (A') (A') (A') (A") (A') (A") (A')
                 (A') (A") (A') (A") (A') (A') (A') (A') (A') (A')
                 (A") (A') (A') (A") (A') (A") (A') (A") (A') (A")
                 (A') (A') (A") (A') (A") (A') (A') (A') (A') (A')
                 (A") (A') (A") (A') (A') (A") (A") (A') (A') (A")
                 (A') (A') (A') (A") (A') (A") (A') (A") (A') (A")
                 (A') (A') (A') (A') (A") (A") (A') (A') (A") (A')
                 (A") (A') (A') (A") (A') (A") (A') (A') (A") (A')
                 (A') (A") (A') (A') (A") (A') (A") (A') (A') (A")
                 (A') (A") (A') (A') (A") (A') (A") (A') (A') (A')
                 (A") (A") (A') (A') (A") (A') (A') (A') (A') (A")
                 (A") (A') (A') (A") (A') (A') (A") (A') (A') (A")
                 (A') (A") (A') (A") (A") (A') (A') (A') (A') (A')
                 (A") (A') (A") (A') (A') (A") (A') (A') (A") (A')
                 (A") (A') (A') (A') (A") (A') (A') (A") (A') (A')
                 (A") (A") (A') (A') (A') (A') (A") (A") (A') (A")
                 (A') (A") (A") (A') (A") (A') (A') (A") (A') (A')
                 (A") (A") (A') (A") (A') (A') (A") (A') (A') (A')
                 (A') (A") (A') (A") (A') (A") (A') (A') (A') (A")
                 (A') (A') (A') (A") (A") (A') (A') (A") (A") (A')
                 (A') (A") (A') (A') (A') (A') (A") (A') (A') (A")
                 (A') (A") (A") (A') (A") (A') (A") (A') (A') (A')
                 (A') (A") (A') (A") (A') (A") (A") (A") (A') (A')
                 (A') (A') (A") (A") (A") (A') (A") (A') (A") (A')
                 (A') (A") (A') (A') (A') (A") (A') (A') (A') (A')
                 (A') (A') (A') (A') (A') (A') (A') (A') (A') (A')
                 (A') (A') (A') (A')
 The electronic state of the initial guess is 1-A'.
 Leave Link  401 at Tue Sep 30 16:58:53 2025, MaxMem=  4294967296 cpu:               5.0 elap:               0.3
 (Enter /software/sse/easybuild/prefix/software/Gaussian/16.C.01-avx2-nsc1/g16/l502.exe)
 Keep R1 ints in memory in symmetry-blocked form, NReq=2036746264.
 FoFCou: FMM=F IPFlag=           0 FMFlag=           0 FMFlg1=           0
         NFxFlg=           0 DoJE=F BraDBF=F KetDBF=F FulRan=T
         wScrn=  0.000000 ICntrl=       600 IOpCl=  0 I1Cent=           0 NGrid=           0
         NMat0=    1 NMatS0=  52003 NMatT0=    0 NMatD0=    1 NMtDS0=    0 NMtDT0=    0
 Petite list used in FoFCou.
 Closed shell SCF:
 Using DIIS extrapolation, IDIIS=  1040.
 NGot=  4294967296 LenX=  3610114521 LenY=  3609973455
 Requested convergence on RMS density matrix=1.00D-08 within 128 cycles.
 Requested convergence on MAX density matrix=1.00D-06.
 Requested convergence on             energy=1.00D-06.
 No special actions if energy rises.

 Cycle   1  Pass 1  IDiag  1:
 E= -224.680814193463    
 DIIS: error= 2.83D-02 at cycle   1 NSaved=   1.
 NSaved= 1 IEnMin= 1 EnMin= -224.680814193463     IErMin= 1 ErrMin= 2.83D-02
 ErrMax= 2.83D-02  0.00D+00 EMaxC= 1.00D-01 BMatC= 4.69D-01 BMatP= 4.69D-01
 IDIUse=3 WtCom= 7.17D-01 WtEn= 2.83D-01
 Coeff-Com:  0.100D+01
 Coeff-En:   0.100D+01
 Coeff:      0.100D+01
 Gap=     0.293 Goal=   None    Shift=    0.000
 GapD=    0.293 DampG=1.000 DampE=0.500 DampFc=0.5000 IDamp=-1.
 Damping current iteration by 5.00D-01
 RMSDP=1.96D-03 MaxDP=1.09D-01              OVMax= 1.54D-01

 Cycle   2  Pass 1  IDiag  1:
 E= -224.793931983418     Delta-E=       -0.113117789955 Rises=F Damp=T
 DIIS: error= 1.10D-02 at cycle   2 NSaved=   2.
 NSaved= 2 IEnMin= 2 EnMin= -224.793931983418     IErMin= 2 ErrMin= 1.10D-02
 ErrMax= 1.10D-02  0.00D+00 EMaxC= 1.00D-01 BMatC= 1.09D-01 BMatP= 4.69D-01
 IDIUse=3 WtCom= 8.90D-01 WtEn= 1.10D-01
 Coeff-Com: -0.719D+00 0.172D+01
 Coeff-En:   0.000D+00 0.100D+01
 Coeff:     -0.640D+00 0.164D+01
 Gap=     0.371 Goal=   None    Shift=    0.000
 RMSDP=1.21D-03 MaxDP=5.71D-02 DE=-1.13D-01 OVMax= 6.42D-02

 Cycle   3  Pass 1  IDiag  1:
 E= -224.895323356640     Delta-E=       -0.101391373222 Rises=F Damp=F
 DIIS: error= 5.70D-03 at cycle   3 NSaved=   3.
 NSaved= 3 IEnMin= 3 EnMin= -224.895323356640     IErMin= 3 ErrMin= 5.70D-03
 ErrMax= 5.70D-03  0.00D+00 EMaxC= 1.00D-01 BMatC= 5.34D-03 BMatP= 1.09D-01
 IDIUse=3 WtCom= 9.43D-01 WtEn= 5.70D-02
 Coeff-Com: -0.247D+00 0.452D+00 0.794D+00
 Coeff-En:   0.000D+00 0.000D+00 0.100D+01
 Coeff:     -0.233D+00 0.426D+00 0.806D+00
 Gap=     0.351 Goal=   None    Shift=    0.000
 RMSDP=1.71D-04 MaxDP=6.73D-03 DE=-1.01D-01 OVMax= 2.66D-02

 Cycle   4  Pass 1  IDiag  1:
 E= -224.899789290911     Delta-E=       -0.004465934271 Rises=F Damp=F
 DIIS: error= 1.31D-03 at cycle   4 NSaved=   4.
 NSaved= 4 IEnMin= 4 EnMin= -224.899789290911     IErMin= 4 ErrMin= 1.31D-03
 ErrMax= 1.31D-03  0.00D+00 EMaxC= 1.00D-01 BMatC= 2.83D-04 BMatP= 5.34D-03
 IDIUse=3 WtCom= 9.87D-01 WtEn= 1.31D-02
 Coeff-Com: -0.556D-01 0.924D-01 0.246D+00 0.718D+00
 Coeff-En:   0.000D+00 0.000D+00 0.000D+00 0.100D+01
 Coeff:     -0.549D-01 0.912D-01 0.242D+00 0.721D+00
 Gap=     0.347 Goal=   None    Shift=    0.000
 RMSDP=4.05D-05 MaxDP=1.22D-03 DE=-4.47D-03 OVMax= 5.26D-03

 Cycle   5  Pass 1  IDiag  1:
 E= -224.900060171561     Delta-E=       -0.000270880650 Rises=F Damp=F
 DIIS: error= 7.08D-04 at cycle   5 NSaved=   5.
 NSaved= 5 IEnMin= 5 EnMin= -224.900060171561     IErMin= 5 ErrMin= 7.08D-04
 ErrMax= 7.08D-04  0.00D+00 EMaxC= 1.00D-01 BMatC= 2.25D-05 BMatP= 2.83D-04
 IDIUse=3 WtCom= 9.93D-01 WtEn= 7.08D-03
 Coeff-Com:  0.158D-01-0.303D-01-0.486D-01 0.990D-01 0.964D+00
 Coeff-En:   0.000D+00 0.000D+00 0.000D+00 0.000D+00 0.100D+01
 Coeff:      0.157D-01-0.301D-01-0.482D-01 0.983D-01 0.964D+00
 Gap=     0.348 Goal=   None    Shift=    0.000
 RMSDP=2.16D-05 MaxDP=8.52D-04 DE=-2.71D-04 OVMax= 3.73D-03

 Cycle   6  Pass 1  IDiag  1:
 E= -224.900108798041     Delta-E=       -0.000048626480 Rises=F Damp=F
 DIIS: error= 2.02D-04 at cycle   6 NSaved=   6.
 NSaved= 6 IEnMin= 6 EnMin= -224.900108798041     IErMin= 6 ErrMin= 2.02D-04
 ErrMax= 2.02D-04  0.00D+00 EMaxC= 1.00D-01 BMatC= 3.34D-06 BMatP= 2.25D-05
 IDIUse=3 WtCom= 9.98D-01 WtEn= 2.02D-03
 Coeff-Com:  0.616D-02-0.103D-01-0.259D-01-0.109D+00-0.665D-01 0.121D+01
 Coeff-En:   0.000D+00 0.000D+00 0.000D+00 0.000D+00 0.000D+00 0.100D+01
 Coeff:      0.615D-02-0.103D-01-0.259D-01-0.109D+00-0.663D-01 0.121D+01
 Gap=     0.348 Goal=   None    Shift=    0.000
 RMSDP=1.13D-05 MaxDP=3.50D-04 DE=-4.86D-05 OVMax= 1.97D-03

 Cycle   7  Pass 1  IDiag  1:
 E= -224.900120138255     Delta-E=       -0.000011340215 Rises=F Damp=F
 DIIS: error= 8.76D-05 at cycle   7 NSaved=   7.
 NSaved= 7 IEnMin= 7 EnMin= -224.900120138255     IErMin= 7 ErrMin= 8.76D-05
 ErrMax= 8.76D-05  0.00D+00 EMaxC= 1.00D-01 BMatC= 3.60D-07 BMatP= 3.34D-06
 IDIUse=1 WtCom= 1.00D+00 WtEn= 0.00D+00
 Coeff-Com: -0.134D-02 0.263D-02 0.490D-02-0.105D-01-0.680D-01-0.123D-01
 Coeff-Com:  0.108D+01
 Coeff:     -0.134D-02 0.263D-02 0.490D-02-0.105D-01-0.680D-01-0.123D-01
 Coeff:      0.108D+01
 Gap=     0.348 Goal=   None    Shift=    0.000
 RMSDP=3.15D-06 MaxDP=1.85D-04 DE=-1.13D-05 OVMax= 7.20D-04

 Cycle   8  Pass 1  IDiag  1:
 E= -224.900121575140     Delta-E=       -0.000001436884 Rises=F Damp=F
 DIIS: error= 3.29D-05 at cycle   8 NSaved=   8.
 NSaved= 8 IEnMin= 8 EnMin= -224.900121575140     IErMin= 8 ErrMin= 3.29D-05
 ErrMax= 3.29D-05  0.00D+00 EMaxC= 1.00D-01 BMatC= 1.06D-07 BMatP= 3.60D-07
 IDIUse=1 WtCom= 1.00D+00 WtEn= 0.00D+00
 Coeff-Com: -0.169D-02 0.289D-02 0.678D-02 0.238D-01 0.101D-01-0.327D+00
 Coeff-Com:  0.163D+00 0.112D+01
 Coeff:     -0.169D-02 0.289D-02 0.678D-02 0.238D-01 0.101D-01-0.327D+00
 Coeff:      0.163D+00 0.112D+01
 Gap=     0.348 Goal=   None    Shift=    0.000
 RMSDP=1.89D-06 MaxDP=8.77D-05 DE=-1.44D-06 OVMax= 4.18D-04

 Cycle   9  Pass 1  IDiag  1:
 E= -224.900121893196     Delta-E=       -0.000000318056 Rises=F Damp=F
 DIIS: error= 3.65D-06 at cycle   9 NSaved=   9.
 NSaved= 9 IEnMin= 9 EnMin= -224.900121893196     IErMin= 9 ErrMin= 3.65D-06
 ErrMax= 3.65D-06  0.00D+00 EMaxC= 1.00D-01 BMatC= 2.65D-09 BMatP= 1.06D-07
 IDIUse=1 WtCom= 1.00D+00 WtEn= 0.00D+00
 Coeff-Com:  0.357D-03-0.632D-03-0.165D-02-0.317D-02 0.285D-02 0.557D-01
 Coeff-Com: -0.621D-01-0.242D+00 0.125D+01
 Coeff:      0.357D-03-0.632D-03-0.165D-02-0.317D-02 0.285D-02 0.557D-01
 Coeff:     -0.621D-01-0.242D+00 0.125D+01
 Gap=     0.348 Goal=   None    Shift=    0.000
 RMSDP=4.42D-07 MaxDP=1.43D-05 DE=-3.18D-07 OVMax= 5.80D-05

 Cycle  10  Pass 1  IDiag  1:
 E= -224.900121901825     Delta-E=       -0.000000008629 Rises=F Damp=F
 DIIS: error= 1.45D-06 at cycle  10 NSaved=  10.
 NSaved=10 IEnMin=10 EnMin= -224.900121901825     IErMin=10 ErrMin= 1.45D-06
 ErrMax= 1.45D-06  0.00D+00 EMaxC= 1.00D-01 BMatC= 3.79D-10 BMatP= 2.65D-09
 IDIUse=1 WtCom= 1.00D+00 WtEn= 0.00D+00
 Coeff-Com:  0.166D-03-0.287D-03-0.705D-03-0.168D-02-0.407D-03 0.287D-01
 Coeff-Com: -0.163D-01-0.115D+00 0.168D+00 0.938D+00
 Coeff:      0.166D-03-0.287D-03-0.705D-03-0.168D-02-0.407D-03 0.287D-01
 Coeff:     -0.163D-01-0.115D+00 0.168D+00 0.938D+00
 Gap=     0.348 Goal=   None    Shift=    0.000
 RMSDP=1.17D-07 MaxDP=3.66D-06 DE=-8.63D-09 OVMax= 1.20D-05

 Cycle  11  Pass 1  IDiag  1:
 E= -224.900121902630     Delta-E=       -0.000000000805 Rises=F Damp=F
 DIIS: error= 4.65D-07 at cycle  11 NSaved=  11.
 NSaved=11 IEnMin=11 EnMin= -224.900121902630     IErMin=11 ErrMin= 4.65D-07
 ErrMax= 4.65D-07  0.00D+00 EMaxC= 1.00D-01 BMatC= 7.14D-11 BMatP= 3.79D-10
 IDIUse=1 WtCom= 1.00D+00 WtEn= 0.00D+00
 Coeff-Com: -0.409D-04 0.738D-04 0.190D-03 0.509D-03-0.831D-03-0.660D-02
 Coeff-Com:  0.106D-01 0.279D-01-0.215D+00 0.103D+00 0.108D+01
 Coeff:     -0.409D-04 0.738D-04 0.190D-03 0.509D-03-0.831D-03-0.660D-02
 Coeff:      0.106D-01 0.279D-01-0.215D+00 0.103D+00 0.108D+01
 Gap=     0.348 Goal=   None    Shift=    0.000
 RMSDP=6.02D-08 MaxDP=2.08D-06 DE=-8.05D-10 OVMax= 6.13D-06

 Cycle  12  Pass 1  IDiag  1:
 E= -224.900121902792     Delta-E=       -0.000000000162 Rises=F Damp=F
 DIIS: error= 1.49D-07 at cycle  12 NSaved=  12.
 NSaved=12 IEnMin=12 EnMin= -224.900121902792     IErMin=12 ErrMin= 1.49D-07
 ErrMax= 1.49D-07  0.00D+00 EMaxC= 1.00D-01 BMatC= 4.33D-12 BMatP= 7.14D-11
 IDIUse=1 WtCom= 1.00D+00 WtEn= 0.00D+00
 Coeff-Com: -0.925D-05 0.159D-04 0.266D-04 0.120D-03 0.939D-04-0.153D-02
 Coeff-Com:  0.351D-03 0.559D-02 0.148D-01-0.847D-01-0.145D+00 0.121D+01
 Coeff:     -0.925D-05 0.159D-04 0.266D-04 0.120D-03 0.939D-04-0.153D-02
 Coeff:      0.351D-03 0.559D-02 0.148D-01-0.847D-01-0.145D+00 0.121D+01
 Gap=     0.348 Goal=   None    Shift=    0.000
 RMSDP=1.27D-08 MaxDP=5.39D-07 DE=-1.62D-10 OVMax= 2.03D-06

 Cycle  13  Pass 1  IDiag  1:
 E= -224.900121902804     Delta-E=       -0.000000000012 Rises=F Damp=F
 DIIS: error= 6.37D-08 at cycle  13 NSaved=  13.
 NSaved=13 IEnMin=13 EnMin= -224.900121902804     IErMin=13 ErrMin= 6.37D-08
 ErrMax= 6.37D-08  0.00D+00 EMaxC= 1.00D-01 BMatC= 5.42D-13 BMatP= 4.33D-12
 IDIUse=1 WtCom= 1.00D+00 WtEn= 0.00D+00
 Coeff-Com:  0.325D-05-0.592D-05-0.190D-04-0.400D-04 0.659D-04 0.584D-03
 Coeff-Com: -0.997D-03-0.274D-02 0.252D-01-0.253D-01-0.120D+00 0.176D+00
 Coeff-Com:  0.947D+00
 Coeff:      0.325D-05-0.592D-05-0.190D-04-0.400D-04 0.659D-04 0.584D-03
 Coeff:     -0.997D-03-0.274D-02 0.252D-01-0.253D-01-0.120D+00 0.176D+00
 Coeff:      0.947D+00
 Gap=     0.348 Goal=   None    Shift=    0.000
 RMSDP=3.36D-09 MaxDP=1.27D-07 DE=-1.17D-11 OVMax= 4.65D-07

 SCF Done:  E(RHF) =  -224.900121903     A.U. after   13 cycles
            NFock= 13  Conv=0.34D-08     -V/T= 2.0004
 KE= 2.248014506870D+02 PE=-8.562793089000D+02 EE= 2.412812267750D+02
 Leave Link  502 at Tue Sep 30 16:59:12 2025, MaxMem=  4294967296 cpu:             206.1 elap:              18.8
 (Enter /software/sse/easybuild/prefix/software/Gaussian/16.C.01-avx2-nsc1/g16/l601.exe)
 Copying SCF densities to generalized density rwf, IOpCl= 0 IROHF=0.
 SCF density gives NOpUse=  2 NOpAll=  2.

 **********************************************************************

            Population analysis using the SCF Density.

 **********************************************************************

 Orbital symmetries:
 BldTbl:  Degeneracy threshold= 1.00D-02
       Occupied  (A') (A') (A') (A') (A') (A') (A') (A') (A') (A')
                 (A') (A') (A") (A') (A') (A') (A") (A")
       Virtual   (A') (A') (A') (A') (A") (A') (A') (A") (A') (A')
                 (A") (A') (A') (A') (A') (A") (A") (A') (A') (A")
                 (A') (A") (A') (A') (A') (A") (A') (A') (A') (A')
                 (A') (A') (A") (A') (A") (A") (A') (A') (A') (A")
                 (A') (A") (A') (A') (A') (A") (A') (A') (A") (A')
                 (A') (A") (A') (A') (A') (A") (A") (A') (A') (A')
                 (A') (A') (A") (A') (A') (A") (A') (A') (A") (A')
                 (A") (A') (A") (A') (A') (A") (A') (A') (A') (A')
                 (A') (A") (A') (A") (A") (A') (A") (A') (A') (A")
                 (A') (A') (A') (A') (A") (A') (A") (A") (A') (A")
                 (A') (A') (A') (A") (A') (A') (A') (A") (A") (A')
                 (A') (A") (A') (A') (A') (A") (A") (A') (A') (A')
                 (A") (A') (A") (A') (A") (A') (A") (A') (A') (A")
                 (A') (A') (A") (A') (A") (A') (A') (A") (A') (A')
                 (A") (A") (A') (A') (A") (A') (A') (A') (A') (A")
                 (A") (A') (A') (A") (A') (A') (A") (A') (A') (A")
                 (A') (A") (A') (A") (A') (A") (A') (A') (A') (A')
                 (A") (A") (A') (A') (A") (A') (A') (A") (A') (A')
                 (A") (A') (A') (A') (A') (A") (A') (A') (A") (A')
                 (A") (A") (A') (A') (A') (A") (A') (A') (A") (A")
                 (A') (A") (A") (A') (A") (A') (A") (A') (A') (A")
                 (A') (A") (A') (A') (A") (A") (A') (A') (A') (A')
                 (A') (A") (A') (A") (A') (A") (A') (A') (A') (A')
                 (A") (A") (A') (A') (A") (A') (A") (A') (A") (A')
                 (A') (A") (A') (A') (A") (A') (A') (A') (A") (A')
                 (A") (A") (A') (A") (A') (A") (A') (A') (A') (A')
                 (A") (A') (A') (A') (A") (A") (A') (A') (A") (A")
                 (A') (A") (A') (A') (A") (A') (A") (A") (A') (A")
                 (A') (A") (A') (A') (A') (A") (A') (A') (A') (A')
                 (A') (A') (A') (A') (A') (A') (A') (A') (A') (A')
                 (A') (A') (A') (A')
 The electronic state is 1-A'.
 Alpha  occ. eigenvalues --  -15.61812 -15.53905 -11.28957 -11.25606 -11.23736
 Alpha  occ. eigenvalues --   -1.35452  -1.17417  -1.01616  -0.83333  -0.80526
 Alpha  occ. eigenvalues --   -0.76645  -0.61521  -0.60695  -0.60513  -0.57439
 Alpha  occ. eigenvalues --   -0.43617  -0.40294  -0.32685
 Alpha virt. eigenvalues --    0.02120   0.03453   0.04140   0.05240   0.07161
 Alpha virt. eigenvalues --    0.08504   0.10420   0.10557   0.10908   0.11174
 Alpha virt. eigenvalues --    0.11735   0.12677   0.13067   0.14103   0.15485
 Alpha virt. eigenvalues --    0.16107   0.18093   0.18849   0.19353   0.20040
 Alpha virt. eigenvalues --    0.20556   0.22524   0.22849   0.24820   0.25682
 Alpha virt. eigenvalues --    0.27301   0.27734   0.29528   0.31063   0.31852
 Alpha virt. eigenvalues --    0.32187   0.32404   0.33319   0.33916   0.34344
 Alpha virt. eigenvalues --    0.36165   0.37482   0.38644   0.39254   0.39898
 Alpha virt. eigenvalues --    0.41127   0.42210   0.43297   0.44802   0.45806
 Alpha virt. eigenvalues --    0.46318   0.47407   0.48264   0.49137   0.49447
 Alpha virt. eigenvalues --    0.49641   0.50709   0.50813   0.51963   0.52893
 Alpha virt. eigenvalues --    0.54495   0.58279   0.58684   0.60992   0.61925
 Alpha virt. eigenvalues --    0.62862   0.65536   0.67278   0.67669   0.69963
 Alpha virt. eigenvalues --    0.70258   0.70694   0.71734   0.72436   0.74536
 Alpha virt. eigenvalues --    0.75444   0.78235   0.79606   0.80267   0.81262
 Alpha virt. eigenvalues --    0.84105   0.86377   0.86654   0.87540   0.89028
 Alpha virt. eigenvalues --    0.92302   0.92922   0.93170   0.93701   0.94052
 Alpha virt. eigenvalues --    0.96068   0.97794   0.98117   0.99779   1.00704
 Alpha virt. eigenvalues --    1.00810   1.03041   1.04189   1.04380   1.05181
 Alpha virt. eigenvalues --    1.06253   1.06334   1.07563   1.10968   1.11013
 Alpha virt. eigenvalues --    1.11862   1.14131   1.15468   1.16823   1.17862
 Alpha virt. eigenvalues --    1.19031   1.20690   1.20930   1.23512   1.24028
 Alpha virt. eigenvalues --    1.27325   1.27464   1.29353   1.30743   1.33390
 Alpha virt. eigenvalues --    1.34597   1.36564   1.40453   1.41255   1.42408
 Alpha virt. eigenvalues --    1.42992   1.47360   1.47420   1.48370   1.50650
 Alpha virt. eigenvalues --    1.51000   1.53180   1.53927   1.56406   1.56846
 Alpha virt. eigenvalues --    1.61827   1.63618   1.67486   1.68018   1.70178
 Alpha virt. eigenvalues --    1.70473   1.74226   1.75747   1.76146   1.79184
 Alpha virt. eigenvalues --    1.82344   1.83469   1.84996   1.87253   1.92398
 Alpha virt. eigenvalues --    1.95377   1.97607   1.98935   2.03047   2.03097
 Alpha virt. eigenvalues --    2.03333   2.03624   2.06110   2.08517   2.11064
 Alpha virt. eigenvalues --    2.13472   2.15070   2.15674   2.18041   2.19831
 Alpha virt. eigenvalues --    2.22527   2.25158   2.27312   2.29032   2.32331
 Alpha virt. eigenvalues --    2.35231   2.36108   2.39901   2.43643   2.45227
 Alpha virt. eigenvalues --    2.48812   2.50532   2.51404   2.56250   2.58044
 Alpha virt. eigenvalues --    2.60650   2.61937   2.69468   2.70083   2.76827
 Alpha virt. eigenvalues --    2.77032   2.79625   2.89762   2.90987   2.99192
 Alpha virt. eigenvalues --    3.02146   3.02971   3.11430   3.12852   3.19169
 Alpha virt. eigenvalues --    3.27807   3.31475   3.33849   3.38317   3.41133
 Alpha virt. eigenvalues --    3.47171   3.47256   3.51135   3.52701   3.56520
 Alpha virt. eigenvalues --    3.58751   3.61503   3.65909   3.68851   3.69709
 Alpha virt. eigenvalues --    3.70845   3.75122   3.76964   3.78030   3.78687
 Alpha virt. eigenvalues --    3.80821   3.83808   3.86124   3.88457   3.89293
 Alpha virt. eigenvalues --    3.92633   3.93294   4.00214   4.05453   4.10827
 Alpha virt. eigenvalues --    4.12260   4.13534   4.14968   4.17666   4.18462
 Alpha virt. eigenvalues --    4.20804   4.22640   4.24119   4.26085   4.28746
 Alpha virt. eigenvalues --    4.29009   4.31953   4.32352   4.40072   4.42061
 Alpha virt. eigenvalues --    4.42847   4.46572   4.51311   4.54274   4.58330
 Alpha virt. eigenvalues --    4.61333   4.67347   4.68272   4.72465   4.81040
 Alpha virt. eigenvalues --    4.81450   4.83961   4.90410   4.95019   4.97255
 Alpha virt. eigenvalues --    4.97615   5.02183   5.03528   5.07475   5.08246
 Alpha virt. eigenvalues --    5.18535   5.18948   5.19599   5.26848   5.34227
 Alpha virt. eigenvalues --    5.34570   5.38281   5.41332   5.48645   5.51103
 Alpha virt. eigenvalues --    5.52728   5.57673   5.58202   5.62851   5.66661
 Alpha virt. eigenvalues --    5.70120   5.76803   5.78938   5.80965   5.83587
 Alpha virt. eigenvalues --    5.84072   5.86431   5.90230   5.96860   5.98832
 Alpha virt. eigenvalues --    6.05720   6.09391   6.12920   6.25739   6.29644
 Alpha virt. eigenvalues --    6.35012   6.44238   6.50193   6.58957   6.62506
 Alpha virt. eigenvalues --    6.70164   6.77535   6.84253   6.94721   7.06653
 Alpha virt. eigenvalues --    7.13286   7.20085   7.60733   7.87807  16.64872
 Alpha virt. eigenvalues --   16.91227  17.97274  18.66332  19.16819
          Condensed to atoms (all electrons):
               1          2          3          4          5          6
     1  C    6.430411   0.204063   0.009874   0.049319  -0.018550  -0.299060
     2  H    0.204063   0.211418   0.029191  -0.002958   0.006998  -0.021546
     3  C    0.009874   0.029191   6.490588   0.196602  -0.050813  -0.207102
     4  H    0.049319  -0.002958   0.196602   0.220363  -0.007358  -0.024271
     5  N   -0.018550   0.006998  -0.050813  -0.007358   7.552631   0.222709
     6  C   -0.299060  -0.021546  -0.207102  -0.024271   0.222709   6.329107
     7  H   -0.026840  -0.003274  -0.014959  -0.003444   0.007322   0.192959
     8  N    0.248410  -0.003388  -0.157675  -0.000226  -0.248504   0.472824
     9  H   -0.072360   0.012205   0.017193  -0.000172  -0.001192  -0.067750
               7          8          9
     1  C   -0.026840   0.248410  -0.072360
     2  H   -0.003274  -0.003388   0.012205
     3  C   -0.014959  -0.157675   0.017193
     4  H   -0.003444  -0.000226  -0.000172
     5  N    0.007322  -0.248504  -0.001192
     6  C    0.192959   0.472824  -0.067750
     7  H    0.207270   0.021169   0.005546
     8  N    0.021169   6.169243   0.460191
     9  H    0.005546   0.460191   0.538702
 Mulliken charges:
               1
     1  C   -0.525266
     2  H    0.567290
     3  C   -0.312900
     4  H    0.572145
     5  N   -0.463243
     6  C   -0.597869
     7  H    0.614249
     8  N    0.037956
     9  H    0.107637
 Sum of Mulliken charges =  -0.00000
 Mulliken charges with hydrogens summed into heavy atoms:
               1
     1  C    0.042024
     3  C    0.259245
     5  N   -0.463243
     6  C    0.016380
     8  N    0.145593
 DipInt: DoE/N= T F RetVal/Mat= T F Init=T NMatP=  1 IDeriv=0 Min/MaxMlt=  0  4
 Entering OneElI...
 OneElI was handed  4294607186 working-precision words.
 Multipole integrals L=0 to 4 MinM= 0 MaxM= 0.
 Requested accuracy = 0.1000D-12
 ShPair: Thresh= 1.00D-13 NBox=     0 BxSize= 0.00D+00 RnKept= 7.89D+00
         NSMCal=                 5671 NSMKep=                5666
 PrmmSu-InSpLW:  IPartL=    0 NPrtUS=    1 NPrtUL=    1 DoSpLW=F IThBeg=    0 IThEnd=    0 NThAct=    1.
 PrSmSu:  IncTry=   512 NBBP=           5666 NTPThr=   100 NPartT=    1 Incr=          56 LDynOK=F GPUOK=F.
 PrsmSu:  NPrtUS=   1 ThrOK=F IAlg=2 LenDen=           0 ISkipM=0 DoSpLW=F IThBeg=    0 IThEnd=    0.
 Prism:   IPart=     0 DynPar=F LinDyn=F Incr=          56.
 PRISM was handed  4294188687 working-precision words and  5666 shell-pairs
 IPart=  0 NShTot=        5666 NBatch=          80 AvBLen=        70.8
 PrsmSu-ThDecC:  IPartSL=    0    0 NPrtUSL=    1    1 IThBeg=    0 IThEnd=    0 CPU=   -1 GPU=   -1 NThAct=    1.
 PrSmSu:  NxtVal=             57.
 Electronic moments (au):
        -36.00000000          0.42261614          1.43050269         -0.00000000
       -129.17656927       -127.39209702        -24.03335440          0.21356141
         -0.00000000         -0.00000000         -9.57123339         18.91800988
         -0.00000000        -12.22677512          1.95069972         -0.00000000
         -1.92637818          2.01394749         -0.00000000         -0.00000000
      -1178.77521102      -1045.27143945        -96.66695338          5.86081624
         -0.00000000         61.23932910         -0.00000000         -0.00000000
         -0.00000000       -354.15146990       -106.73301845        -98.03980501
         -0.00000000         -0.00000000          1.57017989
 Electronic spatial extent (au):  <R**2>=            280.6020
 DipInt: DoE/N= F T RetVal/Mat= T F Init=T NMatP=  1 IDeriv=0 Min/MaxMlt=  0  4
 Nuclear    moments (au):
         36.00000000          0.00000000         -0.00000000          0.00000000
        109.28555163        108.07223146          0.00000000         -2.84225727
          0.00000000          0.00000000          9.42076724          3.54812322
          0.00000000         20.52735030          8.09073584          0.00000000
          0.00000000          0.00000000          0.00000000          0.00000000
        764.75999249        679.38119491          0.00000000        -15.18512047
          0.00000000        -87.53887665          0.00000000          0.00000000
          0.00000000        201.52263398          0.00000000          0.00000000
          0.00000000          0.00000000          0.00000000
 Total      moments (au):
         -0.00000000          0.42261614          1.43050269          0.00000000
        -19.89101764        -19.31986556        -24.03335440         -2.62869585
          0.00000000          0.00000000         -0.15046615         22.46613311
          0.00000000          8.30057518         10.04143556          0.00000000
         -1.92637818          2.01394749          0.00000000          0.00000000
       -414.01521853       -365.89024454        -96.66695338         -9.32430422
          0.00000000        -26.29954756          0.00000000          0.00000000
          0.00000000       -152.62883592       -106.73301845        -98.03980501
          0.00000000          0.00000000          1.57017989
 Traceless Quadrup. (au):
          1.19039489          1.76154697         -2.95194187         -2.62869585
          0.00000000          0.00000000
 Charge=             -0.0000 electrons
 Dipole moment (field-independent basis, Debye):
    X=              1.0742    Y=              3.6360    Z=              0.0000  Tot=              3.7913
 Quadrupole moment (field-independent basis, Debye-Ang):
   XX=            -26.7541   YY=            -25.9859   ZZ=            -32.3257
   XY=             -3.5357   XZ=              0.0000   YZ=              0.0000
 Traceless Quadrupole moment (field-independent basis, Debye-Ang):
   XX=              1.6011   YY=              2.3693   ZZ=             -3.9705
   XY=             -3.5357   XZ=              0.0000   YZ=              0.0000
 Octapole moment (field-independent basis, Debye-Ang**2):
  XXX=             -0.1071  YYY=             15.9905  ZZZ=              0.0000  XYY=              5.9080
  XXY=              7.1471  XXZ=              0.0000  XZZ=             -1.3711  YZZ=              1.4335
  YYZ=              0.0000  XYZ=              0.0000
 Hexadecapole moment (field-independent basis, Debye-Ang**3):
 XXXX=           -155.9380 YYYY=           -137.8118 ZZZZ=            -36.4094 XXXY=             -3.5120
 XXXZ=              0.0000 YYYX=             -9.9057 YYYZ=              0.0000 ZZZX=              0.0000
 ZZZY=              0.0000 XXYY=            -57.4873 XXZZ=            -40.2008 YYZZ=            -36.9265
 XXYZ=              0.0000 YYXZ=              0.0000 ZZXY=              0.5914
 N-N= 1.652965095352D+02 E-N=-8.562793073872D+02  KE= 2.248014506870D+02
 Symmetry A'   KE= 2.170638894679D+02
 Symmetry A"   KE= 7.737561219099D+00
 SetAtRh:  ITypeU=  23 NETotI=      -1 ICharg=  0 NETot=      36.
 StAtR1:  I=    1 I1=    1 IA=  6 C=   6.0 OKShel=TTT
                                                  SSP
                                                  222
 StAtR1:  I=    2 I1=    2 IA=  1 C=   1.0 OKShel=T
                                                  S
                                                  1
 StAtR1:  I=    3 I1=    3 IA=  6 C=   6.0 OKShel=TTT
                                                  SSP
                                                  222
 StAtR1:  I=    4 I1=    4 IA=  1 C=   1.0 OKShel=T
                                                  S
                                                  1
 StAtR1:  I=    5 I1=    5 IA=  7 C=   7.0 OKShel=TTT
                                                  SSP
                                                  223
 StAtR1:  I=    6 I1=    6 IA=  6 C=   6.0 OKShel=TTT
                                                  SSP
                                                  222
 StAtR1:  I=    7 I1=    7 IA=  1 C=   1.0 OKShel=T
                                                  S
                                                  1
 StAtR1:  I=    8 I1=    8 IA=  7 C=   7.0 OKShel=TTT
                                                  SSP
                                                  223
 StAtR1:  I=    9 I1=    9 IA=  1 C=   1.0 OKShel=T
                                                  S
                                                  1
          I=    1 IA=  6 I1=    1 NAtG=23 NE=   6.000 C=   6.000 Err= 1.75D-11
          I=    2 IA=  1 I1=    2 NAtG=20 NE=   1.000 C=   1.000 Err= 2.80D-12
          I=    3 IA=  6 I1=    3 NAtG=23 NE=   6.000 C=   6.000 Err= 1.75D-11
          I=    4 IA=  1 I1=    4 NAtG=20 NE=   1.000 C=   1.000 Err= 2.80D-12
          I=    5 IA=  7 I1=    5 NAtG=22 NE=   7.000 C=   7.000 Err= 6.08D-13
          I=    6 IA=  6 I1=    6 NAtG=23 NE=   6.000 C=   6.000 Err= 1.75D-11
          I=    7 IA=  1 I1=    7 NAtG=20 NE=   1.000 C=   1.000 Err= 2.80D-12
          I=    8 IA=  7 I1=    8 NAtG=22 NE=   7.000 C=   7.000 Err= 6.08D-13
          I=    9 IA=  1 I1=    9 NAtG=20 NE=   1.000 C=   1.000 Err= 2.80D-12
 Pruned (  99, 590) grid will be used in numerical quadrature.
 IPart=  0 IRanGd=          0 ScrnBf=T ScrnGd=T RCrit=4.00D+00 DoMicB=T.
 CutRad = 1000.00    CtRdIn =    0.00    XCrit =  15.00   ICut = 0
 Pruned (  99, 590) grid will be used in numerical quadrature.
 IPart=  1 IRanGd=          0 ScrnBf=T ScrnGd=T RCrit=4.00D+00 DoMicB=T.
 Pruned (  99, 590) grid will be used in numerical quadrature.
 CutRad = 1000.00    CtRdIn =    0.00    XCrit =  15.00   ICut = 0
 Pruned (  99, 590) grid will be used in numerical quadrature.
 IPart=  4 IRanGd=          0 ScrnBf=T ScrnGd=T RCrit=4.00D+00 DoMicB=T.
 Pruned (  99, 590) grid will be used in numerical quadrature.
 Pruned (  99, 590) grid will be used in numerical quadrature.
 IPart=  5 IRanGd=          0 ScrnBf=T ScrnGd=T RCrit=4.00D+00 DoMicB=T.
 CutRad = 1000.00    CtRdIn =    0.00    XCrit =  15.00   ICut = 0
 Pruned (  99, 590) grid will be used in numerical quadrature.
 Pruned (  99, 590) grid will be used in numerical quadrature.
 IPart= 13 IRanGd=          0 ScrnBf=T ScrnGd=T RCrit=4.00D+00 DoMicB=T.
 IPart=  2 IRanGd=          0 ScrnBf=T ScrnGd=T RCrit=4.00D+00 DoMicB=T.
 CutRad = 1000.00    CtRdIn =    0.00    XCrit =  15.00   ICut = 0
 CutRad = 1000.00    CtRdIn =    0.00    XCrit =  15.00   ICut = 0
 IPart=  3 IRanGd=          0 ScrnBf=T ScrnGd=T RCrit=4.00D+00 DoMicB=T.
 CutRad = 1000.00    CtRdIn =    0.00    XCrit =  15.00   ICut = 0
 Pruned (  99, 590) grid will be used in numerical quadrature.
 Pruned (  99, 590) grid will be used in numerical quadrature.
 Pruned (  99, 590) grid will be used in numerical quadrature.
 Pruned (  99, 590) grid will be used in numerical quadrature.
 Pruned (  99, 590) grid will be used in numerical quadrature.
 IPart=  0 Atom number   1 atomic number  6 has       23114 grid points.
 Pruned (  99, 590) grid will be used in numerical quadrature.
 CutRad = 1000.00    CtRdIn =    0.00    XCrit =  15.00   ICut = 0
 Pruned (  99, 590) grid will be used in numerical quadrature.
 IPart=  6 IRanGd=          0 ScrnBf=T ScrnGd=T RCrit=4.00D+00 DoMicB=T.
 CutRad = 1000.00    CtRdIn =    0.00    XCrit =  15.00   ICut = 0
 IPart=  9 IRanGd=          0 ScrnBf=T ScrnGd=T RCrit=4.00D+00 DoMicB=T.
 Pruned (  99, 590) grid will be used in numerical quadrature.
 CutRad = 1000.00    CtRdIn =    0.00    XCrit =  15.00   ICut = 0
 IPart= 12 IRanGd=          0 ScrnBf=T ScrnGd=T RCrit=4.00D+00 DoMicB=T.
 CutRad = 1000.00    CtRdIn =    0.00    XCrit =  15.00   ICut = 0
 IPart= 14 IRanGd=          0 ScrnBf=T ScrnGd=T RCrit=4.00D+00 DoMicB=T.
 CutRad = 1000.00    CtRdIn =    0.00    XCrit =  15.00   ICut = 0
 IPart= 11 IRanGd=          0 ScrnBf=T ScrnGd=T RCrit=4.00D+00 DoMicB=T.
 IPart=  8 IRanGd=          0 ScrnBf=T ScrnGd=T RCrit=4.00D+00 DoMicB=T.
 IPart= 15 IRanGd=          0 ScrnBf=T ScrnGd=T RCrit=4.00D+00 DoMicB=T.
 CutRad = 1000.00    CtRdIn =    0.00    XCrit =  15.00   ICut = 0
 CutRad = 1000.00    CtRdIn =    0.00    XCrit =  15.00   ICut = 0
 CutRad = 1000.00    CtRdIn =    0.00    XCrit =  15.00   ICut = 0
 Pruned (  99, 590) grid will be used in numerical quadrature.
 IPart=  7 IRanGd=          0 ScrnBf=T ScrnGd=T RCrit=4.00D+00 DoMicB=T.
 IPart=  0 Atom   1 batch    1 overlaps    9 atoms,   102 shells and     9 DB shells.   NGrid=      2408
 CutRad = 1000.00    CtRdIn =    0.00    XCrit =  15.00   ICut = 0
 IPart= 10 IRanGd=          0 ScrnBf=T ScrnGd=T RCrit=4.00D+00 DoMicB=T.
 CutRad = 1000.00    CtRdIn =    0.00    XCrit =  15.00   ICut = 0
 Symmetry reduced    86 angular points to    86 for atom    1.
 Pruned (  99, 590) grid will be used in numerical quadrature.
 IPart=  1 Atom number   1 atomic number  6 has       23114 grid points.
 IPart=  1 Atom   1 batch    2 overlaps    9 atoms,   104 shells and     9 DB shells.   NGrid=      2522
 Symmetry reduced   194 angular points to   194 for atom    1.
 Pruned (  99, 590) grid will be used in numerical quadrature.
 IPart=  5 Atom number   1 atomic number  6 has       23114 grid points.
 IPart=  5 Atom   1 batch    3 overlaps    9 atoms,   105 shells and     9 DB shells.   NGrid=      2114
 Symmetry reduced   302 angular points to   302 for atom    1.
 Pruned (  99, 590) grid will be used in numerical quadrature.
 Pruned (  99, 590) grid will be used in numerical quadrature.
 IPart=  2 Atom number   1 atomic number  6 has       23114 grid points.
 Pruned (  99, 590) grid will be used in numerical quadrature.
 IPart=  4 Atom number   1 atomic number  6 has       23114 grid points.
 IPart=  3 Atom number   1 atomic number  6 has       23114 grid points.
 IPart=  4 Atom   1 batch    5 overlaps    9 atoms,   106 shells and     9 DB shells.   NGrid=      1180
 IPart=  3 Atom   1 batch    6 overlaps    9 atoms,   106 shells and     9 DB shells.   NGrid=      1180
 IPart=  2 Atom   1 batch    4 overlaps    9 atoms,   106 shells and     9 DB shells.   NGrid=      1180
 Symmetry reduced   590 angular points to   590 for atom    1.
 Symmetry reduced   590 angular points to   590 for atom    1.
 Symmetry reduced   590 angular points to   590 for atom    1.
 Pruned (  99, 590) grid will be used in numerical quadrature.
 IPart= 13 Atom number   1 atomic number  6 has       23114 grid points.
 IPart= 13 Atom   1 batch    7 overlaps    9 atoms,   106 shells and     9 DB shells.   NGrid=      1180
 Pruned (  99, 590) grid will be used in numerical quadrature.
 Symmetry reduced   590 angular points to   590 for atom    1.
 IPart=  6 Atom number   1 atomic number  6 has       23114 grid points.
 IPart=  6 Atom   1 batch    8 overlaps    9 atoms,   106 shells and     9 DB shells.   NGrid=      1180
 Pruned (  99, 590) grid will be used in numerical quadrature.
 Symmetry reduced   590 angular points to   590 for atom    1.
 IPart=  9 Atom number   1 atomic number  6 has       23114 grid points.
 IPart=  9 Atom   1 batch    9 overlaps    9 atoms,   106 shells and     9 DB shells.   NGrid=      1180
 Pruned (  99, 590) grid will be used in numerical quadrature.
 Symmetry reduced   590 angular points to   590 for atom    1.
 IPart= 12 Atom number   1 atomic number  6 has       23114 grid points.
 Pruned (  99, 590) grid will be used in numerical quadrature.
 Pruned (  99, 590) grid will be used in numerical quadrature.
 IPart= 14 Atom number   1 atomic number  6 has       23114 grid points.
 IPart= 15 Atom number   1 atomic number  6 has       23114 grid points.
 Pruned (  99, 590) grid will be used in numerical quadrature.
 IPart= 15 Atom   1 batch   13 overlaps    9 atoms,   105 shells and     9 DB shells.   NGrid=       604
 Pruned (  99, 590) grid will be used in numerical quadrature.
 Symmetry reduced   302 angular points to   302 for atom    1.
 IPart=  7 Atom number   1 atomic number  6 has       23114 grid points.
 IPart=  8 Atom number   1 atomic number  6 has       23114 grid points.
 IPart=  7 Atom   1 batch   15 overlaps    9 atoms,   100 shells and     9 DB shells.   NGrid=       604
 IPart=  8 Atom   1 batch   14 overlaps    9 atoms,   105 shells and     9 DB shells.   NGrid=       604
 Pruned (  99, 590) grid will be used in numerical quadrature.
 Symmetry reduced   302 angular points to   302 for atom    1.
 IPart= 10 Atom number   1 atomic number  6 has       23114 grid points.
 Symmetry reduced   302 angular points to   302 for atom    1.
 IPart= 10 Atom   1 batch   16 overlaps    9 atoms,    93 shells and     9 DB shells.   NGrid=       604
 IPart= 14 Atom   1 batch   11 overlaps    9 atoms,   105 shells and     9 DB shells.   NGrid=      1180
 Symmetry reduced   302 angular points to   302 for atom    1.
 Symmetry reduced   590 angular points to   590 for atom    1.
 Pruned (  99, 590) grid will be used in numerical quadrature.
 IPart= 12 Atom   1 batch   10 overlaps    9 atoms,   106 shells and     9 DB shells.   NGrid=      1180
 IPart= 11 Atom number   1 atomic number  6 has       23114 grid points.
 Symmetry reduced   590 angular points to   590 for atom    1.
 IPart= 11 Atom   1 batch   12 overlaps    9 atoms,   105 shells and     9 DB shells.   NGrid=       590
 Symmetry reduced   590 angular points to   590 for atom    1.
 IPart= 10 Atom   1 batch   17 overlaps    9 atoms,    81 shells and     9 DB shells.   NGrid=       604
 IPart=  7 Atom   1 batch   18 overlaps    9 atoms,    63 shells and     9 DB shells.   NGrid=       604
 IPart=  8 Atom   1 batch   19 overlaps    9 atoms,    44 shells and     9 DB shells.   NGrid=       604
 IPart=  7 Atom   1 batch   20 overlaps    9 atoms,    29 shells and     5 DB shells.   NGrid=       604
 IPart= 11 Atom   1 batch   21 overlaps    9 atoms,    14 shells and     0 DB shells.   NGrid=       604
 Symmetry reduced   302 angular points to   302 for atom    1.
 IPart=  8 Atom   1 batch   22 overlaps    9 atoms,     5 shells and     0 DB shells.   NGrid=       604
 Pruned (  99, 590) grid will be used in numerical quadrature.
 IPart= 10 Atom number   2 atomic number  1 has       23466 grid points.
 IPart= 10 Atom   2 batch    1 overlaps    9 atoms,    96 shells and     9 DB shells.   NGrid=      2838
 Symmetry reduced    86 angular points to    86 for atom    2.
 Pruned (  99, 590) grid will be used in numerical quadrature.
 IPart=  7 Atom number   2 atomic number  1 has       23466 grid points.
 Pruned (  99, 590) grid will be used in numerical quadrature.
 IPart=  7 Atom   2 batch    2 overlaps    9 atoms,    96 shells and     9 DB shells.   NGrid=      1552
 IPart= 15 Atom number   2 atomic number  1 has       23466 grid points.
 Symmetry reduced   194 angular points to   194 for atom    2.
 IPart= 15 Atom   2 batch    3 overlaps    9 atoms,    98 shells and     9 DB shells.   NGrid=      2416
 Symmetry reduced   302 angular points to   302 for atom    2.
 Pruned (  99, 590) grid will be used in numerical quadrature.
 IPart=  8 Atom number   2 atomic number  1 has       23466 grid points.
 IPart=  8 Atom   2 batch    4 overlaps    9 atoms,   100 shells and     9 DB shells.   NGrid=      1180
 Symmetry reduced   590 angular points to   590 for atom    2.
 Pruned (  99, 590) grid will be used in numerical quadrature.
 IPart= 11 Atom number   2 atomic number  1 has       23466 grid points.
 IPart= 11 Atom   2 batch    5 overlaps    9 atoms,   101 shells and     9 DB shells.   NGrid=      1180
 Symmetry reduced   590 angular points to   590 for atom    2.
 Pruned (  99, 590) grid will be used in numerical quadrature.
 IPart= 14 Atom number   2 atomic number  1 has       23466 grid points.
 IPart= 14 Atom   2 batch    6 overlaps    9 atoms,   102 shells and     9 DB shells.   NGrid=      1180
 Symmetry reduced   590 angular points to   590 for atom    2.
 Pruned (  99, 590) grid will be used in numerical quadrature.
 IPart= 12 Atom number   2 atomic number  1 has       23466 grid points.
 IPart= 12 Atom   2 batch    7 overlaps    9 atoms,   102 shells and     9 DB shells.   NGrid=      1180
 Symmetry reduced   590 angular points to   590 for atom    2.
 Pruned (  99, 590) grid will be used in numerical quadrature.
 IPart=  2 Atom number   2 atomic number  1 has       23466 grid points.
 IPart=  2 Atom   2 batch    8 overlaps    9 atoms,   103 shells and     9 DB shells.   NGrid=      1180
 Symmetry reduced   590 angular points to   590 for atom    2.
 Pruned (  99, 590) grid will be used in numerical quadrature.
 IPart=  3 Atom number   2 atomic number  1 has       23466 grid points.
 IPart=  3 Atom   2 batch    9 overlaps    9 atoms,   104 shells and     9 DB shells.   NGrid=      1180
 Pruned (  99, 590) grid will be used in numerical quadrature.
 Symmetry reduced   590 angular points to   590 for atom    2.
 IPart=  9 Atom number   2 atomic number  1 has       23466 grid points.
 IPart=  9 Atom   2 batch   10 overlaps    9 atoms,   105 shells and     9 DB shells.   NGrid=      1180
 Symmetry reduced   590 angular points to   590 for atom    2.
 Pruned (  99, 590) grid will be used in numerical quadrature.
 IPart=  4 Atom number   2 atomic number  1 has       23466 grid points.
 IPart=  4 Atom   2 batch   11 overlaps    9 atoms,   106 shells and     9 DB shells.   NGrid=      1180
 Pruned (  99, 590) grid will be used in numerical quadrature.
 Symmetry reduced   590 angular points to   590 for atom    2.
 IPart= 13 Atom number   2 atomic number  1 has       23466 grid points.
 IPart= 13 Atom   2 batch   12 overlaps    9 atoms,   106 shells and     9 DB shells.   NGrid=      1180
 Symmetry reduced   590 angular points to   590 for atom    2.
 Pruned (  99, 590) grid will be used in numerical quadrature.
 IPart=  6 Atom number   2 atomic number  1 has       23466 grid points.
 IPart=  6 Atom   2 batch   13 overlaps    9 atoms,   106 shells and     9 DB shells.   NGrid=       604
 Symmetry reduced   302 angular points to   302 for atom    2.
 IPart= 11 Atom   2 batch   14 overlaps    9 atoms,   106 shells and     9 DB shells.   NGrid=       604
 Symmetry reduced   302 angular points to   302 for atom    2.
 IPart=  8 Atom   2 batch   15 overlaps    9 atoms,   102 shells and     9 DB shells.   NGrid=       604
 Symmetry reduced   302 angular points to   302 for atom    2.
 IPart=  6 Atom   2 batch   16 overlaps    9 atoms,    99 shells and     9 DB shells.   NGrid=       604
 IPart=  7 Atom   2 batch   17 overlaps    9 atoms,    91 shells and     9 DB shells.   NGrid=       604
 Symmetry reduced   302 angular points to   302 for atom    2.
 Pruned (  99, 590) grid will be used in numerical quadrature.
 IPart=  5 Atom number   2 atomic number  1 has       23466 grid points.
 IPart=  5 Atom   2 batch   18 overlaps    9 atoms,    71 shells and     9 DB shells.   NGrid=       604
 Symmetry reduced   302 angular points to   302 for atom    2.
 Pruned (  99, 590) grid will be used in numerical quadrature.
 IPart=  0 Atom number   2 atomic number  1 has       23466 grid points.
 IPart=  0 Atom   2 batch   19 overlaps    9 atoms,    48 shells and     9 DB shells.   NGrid=       604
 Symmetry reduced   302 angular points to   302 for atom    2.
 IPart=  7 Atom   2 batch   20 overlaps    9 atoms,    28 shells and     5 DB shells.   NGrid=       604
 IPart=  8 Atom   2 batch   21 overlaps    9 atoms,    14 shells and     0 DB shells.   NGrid=       604
 IPart= 14 Atom   2 batch   22 overlaps    9 atoms,     3 shells and     0 DB shells.   NGrid=       604
 Pruned (  99, 590) grid will be used in numerical quadrature.
 Symmetry reduced   302 angular points to   302 for atom    2.
 IPart=  7 Atom number   3 atomic number  6 has       23114 grid points.
 IPart=  7 Atom   3 batch    1 overlaps    9 atoms,   102 shells and     9 DB shells.   NGrid=      2408
 Symmetry reduced    86 angular points to    86 for atom    3.
 Pruned (  99, 590) grid will be used in numerical quadrature.
 IPart=  0 Atom number   3 atomic number  6 has       23114 grid points.
 IPart=  0 Atom   3 batch    2 overlaps    9 atoms,   105 shells and     9 DB shells.   NGrid=      2522
 Symmetry reduced   194 angular points to   194 for atom    3.
 Pruned (  99, 590) grid will be used in numerical quadrature.
 IPart=  6 Atom number   3 atomic number  6 has       23114 grid points.
 IPart=  6 Atom   3 batch    3 overlaps    9 atoms,   105 shells and     9 DB shells.   NGrid=      2114
 Symmetry reduced   302 angular points to   302 for atom    3.
 Pruned (  99, 590) grid will be used in numerical quadrature.
 IPart=  5 Atom number   3 atomic number  6 has       23114 grid points.
 IPart=  5 Atom   3 batch    4 overlaps    9 atoms,   106 shells and     9 DB shells.   NGrid=      1180
 Pruned (  99, 590) grid will be used in numerical quadrature.
 Symmetry reduced   590 angular points to   590 for atom    3.
 IPart=  8 Atom number   3 atomic number  6 has       23114 grid points.
 IPart=  8 Atom   3 batch    5 overlaps    9 atoms,   106 shells and     9 DB shells.   NGrid=      1180
 Symmetry reduced   590 angular points to   590 for atom    3.
 Pruned (  99, 590) grid will be used in numerical quadrature.
 IPart= 11 Atom number   3 atomic number  6 has       23114 grid points.
 IPart= 11 Atom   3 batch    6 overlaps    9 atoms,   106 shells and     9 DB shells.   NGrid=      1180
 Symmetry reduced   590 angular points to   590 for atom    3.
 Pruned (  99, 590) grid will be used in numerical quadrature.
 IPart=  3 Atom number   3 atomic number  6 has       23114 grid points.
 IPart=  3 Atom   3 batch    7 overlaps    9 atoms,   106 shells and     9 DB shells.   NGrid=      1180
 Pruned (  99, 590) grid will be used in numerical quadrature.
 Symmetry reduced   590 angular points to   590 for atom    3.
 IPart=  9 Atom number   3 atomic number  6 has       23114 grid points.
 IPart=  9 Atom   3 batch    8 overlaps    9 atoms,   106 shells and     9 DB shells.   NGrid=      1180
 Symmetry reduced   590 angular points to   590 for atom    3.
 Pruned (  99, 590) grid will be used in numerical quadrature.
 Pruned (  99, 590) grid will be used in numerical quadrature.
 IPart= 12 Atom number   3 atomic number  6 has       23114 grid points.
 IPart= 14 Atom number   3 atomic number  6 has       23114 grid points.
 IPart= 12 Atom   3 batch    9 overlaps    9 atoms,   106 shells and     9 DB shells.   NGrid=      1180
 IPart= 14 Atom   3 batch   10 overlaps    9 atoms,   106 shells and     9 DB shells.   NGrid=      1180
 Symmetry reduced   590 angular points to   590 for atom    3.
 Symmetry reduced   590 angular points to   590 for atom    3.
 Pruned (  99, 590) grid will be used in numerical quadrature.
 IPart=  2 Atom number   3 atomic number  6 has       23114 grid points.
 IPart=  2 Atom   3 batch   11 overlaps    9 atoms,   105 shells and     9 DB shells.   NGrid=      1180
 Symmetry reduced   590 angular points to   590 for atom    3.
 Pruned (  99, 590) grid will be used in numerical quadrature.
 IPart=  4 Atom number   3 atomic number  6 has       23114 grid points.
 IPart=  4 Atom   3 batch   12 overlaps    9 atoms,   105 shells and     9 DB shells.   NGrid=       590
 Symmetry reduced   590 angular points to   590 for atom    3.
 Pruned (  99, 590) grid will be used in numerical quadrature.
 IPart= 13 Atom number   3 atomic number  6 has       23114 grid points.
 IPart= 13 Atom   3 batch   13 overlaps    9 atoms,   105 shells and     9 DB shells.   NGrid=       604
 Symmetry reduced   302 angular points to   302 for atom    3.
 Pruned (  99, 590) grid will be used in numerical quadrature.
 IPart=  1 Atom number   2 atomic number  1 has       23466 grid points.
 Pruned (  99, 590) grid will be used in numerical quadrature.
 IPart=  1 Atom number   3 atomic number  6 has       23114 grid points.
 IPart=  1 Atom   3 batch   14 overlaps    9 atoms,   105 shells and     9 DB shells.   NGrid=       604
 Symmetry reduced   302 angular points to   302 for atom    3.
 Pruned (  99, 590) grid will be used in numerical quadrature.
 IPart= 10 Atom number   3 atomic number  6 has       23114 grid points.
 IPart= 10 Atom   3 batch   15 overlaps    9 atoms,   100 shells and     9 DB shells.   NGrid=       604
 Symmetry reduced   302 angular points to   302 for atom    3.
 Pruned (  99, 590) grid will be used in numerical quadrature.
 IPart= 15 Atom number   3 atomic number  6 has       23114 grid points.
 IPart= 15 Atom   3 batch   16 overlaps    9 atoms,    93 shells and     9 DB shells.   NGrid=       604
 Symmetry reduced   302 angular points to   302 for atom    3.
 IPart=  1 Atom   3 batch   17 overlaps    9 atoms,    82 shells and     9 DB shells.   NGrid=       604
 IPart=  4 Atom   3 batch   18 overlaps    9 atoms,    64 shells and     9 DB shells.   NGrid=       604
 Symmetry reduced   302 angular points to   302 for atom    3.
 IPart= 13 Atom   3 batch   19 overlaps    9 atoms,    45 shells and     9 DB shells.   NGrid=       604
 IPart= 15 Atom   3 batch   20 overlaps    9 atoms,    29 shells and     5 DB shells.   NGrid=       604
 IPart= 13 Atom   3 batch   21 overlaps    9 atoms,    14 shells and     0 DB shells.   NGrid=       604
 IPart= 15 Atom   3 batch   22 overlaps    9 atoms,     5 shells and     0 DB shells.   NGrid=       604
 Pruned (  99, 590) grid will be used in numerical quadrature.
 IPart= 10 Atom number   4 atomic number  1 has       23466 grid points.
 IPart= 10 Atom   4 batch    1 overlaps    9 atoms,    93 shells and     9 DB shells.   NGrid=      2838
 Symmetry reduced    86 angular points to    86 for atom    4.
 Pruned (  99, 590) grid will be used in numerical quadrature.
 IPart=  4 Atom number   4 atomic number  1 has       23466 grid points.
 IPart=  4 Atom   4 batch    2 overlaps    9 atoms,    93 shells and     9 DB shells.   NGrid=      1552
 Symmetry reduced   194 angular points to   194 for atom    4.
 Pruned (  99, 590) grid will be used in numerical quadrature.
 IPart= 15 Atom number   4 atomic number  1 has       23466 grid points.
 IPart= 15 Atom   4 batch    3 overlaps    9 atoms,    96 shells and     9 DB shells.   NGrid=      2416
 Symmetry reduced   302 angular points to   302 for atom    4.
 Pruned (  99, 590) grid will be used in numerical quadrature.
 IPart= 13 Atom number   4 atomic number  1 has       23466 grid points.
 IPart= 13 Atom   4 batch    4 overlaps    9 atoms,    98 shells and     9 DB shells.   NGrid=      1180
 Symmetry reduced   590 angular points to   590 for atom    4.
 Pruned (  99, 590) grid will be used in numerical quadrature.
 IPart=  1 Atom number   4 atomic number  1 has       23466 grid points.
 IPart=  1 Atom   4 batch    5 overlaps    9 atoms,    98 shells and     9 DB shells.   NGrid=      1180
 Symmetry reduced   590 angular points to   590 for atom    4.
 Pruned (  99, 590) grid will be used in numerical quadrature.
 IPart=  2 Atom number   4 atomic number  1 has       23466 grid points.
 IPart=  2 Atom   4 batch    6 overlaps    9 atoms,   100 shells and     9 DB shells.   NGrid=      1180
 Symmetry reduced   590 angular points to   590 for atom    4.
 Pruned (  99, 590) grid will be used in numerical quadrature.
 IPart= 14 Atom number   4 atomic number  1 has       23466 grid points.
 IPart= 14 Atom   4 batch    7 overlaps    9 atoms,   100 shells and     9 DB shells.   NGrid=      1180
 Symmetry reduced   590 angular points to   590 for atom    4.
 Pruned (  99, 590) grid will be used in numerical quadrature.
 IPart=  5 Atom number   4 atomic number  1 has       23466 grid points.
 IPart=  5 Atom   4 batch    8 overlaps    9 atoms,   102 shells and     9 DB shells.   NGrid=      1180
 Symmetry reduced   590 angular points to   590 for atom    4.
 Pruned (  99, 590) grid will be used in numerical quadrature.
 IPart=  8 Atom number   4 atomic number  1 has       23466 grid points.
 IPart=  8 Atom   4 batch    9 overlaps    9 atoms,   105 shells and     9 DB shells.   NGrid=      1180
 Symmetry reduced   590 angular points to   590 for atom    4.
 Pruned (  99, 590) grid will be used in numerical quadrature.
 IPart= 11 Atom number   4 atomic number  1 has       23466 grid points.
 IPart= 11 Atom   4 batch   10 overlaps    9 atoms,   105 shells and     9 DB shells.   NGrid=      1180
 Symmetry reduced   590 angular points to   590 for atom    4.
 Pruned (  99, 590) grid will be used in numerical quadrature.
 IPart= 12 Atom number   4 atomic number  1 has       23466 grid points.
 IPart= 12 Atom   4 batch   11 overlaps    9 atoms,   106 shells and     9 DB shells.   NGrid=      1180
 Symmetry reduced   590 angular points to   590 for atom    4.
 Pruned (  99, 590) grid will be used in numerical quadrature.
 Pruned (  99, 590) grid will be used in numerical quadrature.
 IPart=  3 Atom number   4 atomic number  1 has       23466 grid points.
 IPart=  9 Atom number   4 atomic number  1 has       23466 grid points.
 IPart=  3 Atom   4 batch   12 overlaps    9 atoms,   106 shells and     9 DB shells.   NGrid=      1180
 IPart=  9 Atom   4 batch   13 overlaps    9 atoms,   106 shells and     9 DB shells.   NGrid=       604
 Symmetry reduced   590 angular points to   590 for atom    4.
 Symmetry reduced   302 angular points to   302 for atom    4.
 IPart= 13 Atom   4 batch   14 overlaps    9 atoms,   106 shells and     9 DB shells.   NGrid=       604
 Symmetry reduced   302 angular points to   302 for atom    4.
 IPart=  9 Atom   4 batch   15 overlaps    9 atoms,   102 shells and     9 DB shells.   NGrid=       604
 IPart=  1 Atom   4 batch   16 overlaps    9 atoms,    99 shells and     9 DB shells.   NGrid=       604
 Symmetry reduced   302 angular points to   302 for atom    4.
 IPart=  4 Atom   4 batch   17 overlaps    9 atoms,    91 shells and     9 DB shells.   NGrid=       604
 Symmetry reduced   302 angular points to   302 for atom    4.
 Pruned (  99, 590) grid will be used in numerical quadrature.
 IPart=  6 Atom number   4 atomic number  1 has       23466 grid points.
 IPart=  6 Atom   4 batch   18 overlaps    9 atoms,    72 shells and     9 DB shells.   NGrid=       604
 Symmetry reduced   302 angular points to   302 for atom    4.
 Pruned (  99, 590) grid will be used in numerical quadrature.
 IPart=  7 Atom number   4 atomic number  1 has       23466 grid points.
 IPart=  7 Atom   4 batch   19 overlaps    9 atoms,    50 shells and     9 DB shells.   NGrid=       604
 Symmetry reduced   302 angular points to   302 for atom    4.
 IPart=  6 Atom   4 batch   20 overlaps    9 atoms,    28 shells and     5 DB shells.   NGrid=       604
 IPart=  7 Atom   4 batch   21 overlaps    9 atoms,    14 shells and     0 DB shells.   NGrid=       604
 IPart=  2 Atom   4 batch   22 overlaps    9 atoms,     3 shells and     0 DB shells.   NGrid=       604
 Symmetry reduced   302 angular points to   302 for atom    4.
 Pruned (  99, 590) grid will be used in numerical quadrature.
 IPart=  6 Atom number   5 atomic number  7 has       23416 grid points.
 IPart=  6 Atom   5 batch    1 overlaps    9 atoms,   101 shells and     9 DB shells.   NGrid=      2408
 Symmetry reduced    86 angular points to    86 for atom    5.
 Pruned (  99, 590) grid will be used in numerical quadrature.
 IPart=  7 Atom number   5 atomic number  7 has       23416 grid points.
 IPart=  7 Atom   5 batch    2 overlaps    9 atoms,   103 shells and     9 DB shells.   NGrid=      2522
 Pruned (  99, 590) grid will be used in numerical quadrature.
 Symmetry reduced   194 angular points to   194 for atom    5.
 IPart=  8 Atom number   5 atomic number  7 has       23416 grid points.
 IPart=  8 Atom   5 batch    3 overlaps    9 atoms,   105 shells and     9 DB shells.   NGrid=      2114
 Symmetry reduced   302 angular points to   302 for atom    5.
 Pruned (  99, 590) grid will be used in numerical quadrature.
 IPart=  4 Atom number   5 atomic number  7 has       23416 grid points.
 IPart=  4 Atom   5 batch    4 overlaps    9 atoms,   105 shells and     9 DB shells.   NGrid=      1180
 Pruned (  99, 590) grid will be used in numerical quadrature.
 Symmetry reduced   590 angular points to   590 for atom    5.
 IPart= 14 Atom number   5 atomic number  7 has       23416 grid points.
 IPart= 14 Atom   5 batch    5 overlaps    9 atoms,   106 shells and     9 DB shells.   NGrid=      1180
 Symmetry reduced   590 angular points to   590 for atom    5.
 Pruned (  99, 590) grid will be used in numerical quadrature.
 IPart=  9 Atom number   5 atomic number  7 has       23416 grid points.
 IPart=  9 Atom   5 batch    6 overlaps    9 atoms,   106 shells and     9 DB shells.   NGrid=      1180
 Symmetry reduced   590 angular points to   590 for atom    5.
 Pruned (  99, 590) grid will be used in numerical quadrature.
 IPart=  3 Atom number   5 atomic number  7 has       23416 grid points.
 IPart=  3 Atom   5 batch    7 overlaps    9 atoms,   106 shells and     9 DB shells.   NGrid=      1180
 Pruned (  99, 590) grid will be used in numerical quadrature.
 Symmetry reduced   590 angular points to   590 for atom    5.
 IPart=  2 Atom number   5 atomic number  7 has       23416 grid points.
 IPart=  2 Atom   5 batch    8 overlaps    9 atoms,   106 shells and     9 DB shells.   NGrid=      1180
 Symmetry reduced   590 angular points to   590 for atom    5.
 Pruned (  99, 590) grid will be used in numerical quadrature.
 IPart=  5 Atom number   5 atomic number  7 has       23416 grid points.
 IPart=  5 Atom   5 batch    9 overlaps    9 atoms,   106 shells and     9 DB shells.   NGrid=      1180
 Symmetry reduced   590 angular points to   590 for atom    5.
 Pruned (  99, 590) grid will be used in numerical quadrature.
 IPart=  1 Atom number   5 atomic number  7 has       23416 grid points.
 IPart=  1 Atom   5 batch   10 overlaps    9 atoms,   106 shells and     9 DB shells.   NGrid=      1180
 Symmetry reduced   590 angular points to   590 for atom    5.
 Pruned (  99, 590) grid will be used in numerical quadrature.
 IPart= 11 Atom number   5 atomic number  7 has       23416 grid points.
 IPart= 11 Atom   5 batch   11 overlaps    9 atoms,   106 shells and     9 DB shells.   NGrid=      1180
 Symmetry reduced   590 angular points to   590 for atom    5.
 Pruned (  99, 590) grid will be used in numerical quadrature.
 IPart= 12 Atom number   5 atomic number  7 has       23416 grid points.
 IPart= 12 Atom   5 batch   12 overlaps    9 atoms,   105 shells and     9 DB shells.   NGrid=       590
 Pruned (  99, 590) grid will be used in numerical quadrature.
 Symmetry reduced   590 angular points to   590 for atom    5.
 IPart=  0 Atom number   4 atomic number  1 has       23466 grid points.
 Pruned (  99, 590) grid will be used in numerical quadrature.
 IPart=  0 Atom number   5 atomic number  7 has       23416 grid points.
 IPart=  0 Atom   5 batch   13 overlaps    9 atoms,   105 shells and     9 DB shells.   NGrid=       604
 Symmetry reduced   302 angular points to   302 for atom    5.
 Pruned (  99, 590) grid will be used in numerical quadrature.
 IPart= 13 Atom number   5 atomic number  7 has       23416 grid points.
 IPart= 13 Atom   5 batch   14 overlaps    9 atoms,   105 shells and     9 DB shells.   NGrid=       604
 Symmetry reduced   302 angular points to   302 for atom    5.
 Pruned (  99, 590) grid will be used in numerical quadrature.
 IPart= 15 Atom number   5 atomic number  7 has       23416 grid points.
 IPart= 15 Atom   5 batch   15 overlaps    9 atoms,   103 shells and     9 DB shells.   NGrid=       604
 Symmetry reduced   302 angular points to   302 for atom    5.
 Pruned (  99, 590) grid will be used in numerical quadrature.
 IPart= 10 Atom number   5 atomic number  7 has       23416 grid points.
 IPart= 10 Atom   5 batch   16 overlaps    9 atoms,    99 shells and     9 DB shells.   NGrid=       604
 Symmetry reduced   302 angular points to   302 for atom    5.
 IPart=  0 Atom   5 batch   17 overlaps    9 atoms,    97 shells and     9 DB shells.   NGrid=       604
 IPart= 13 Atom   5 batch   18 overlaps    9 atoms,    79 shells and     9 DB shells.   NGrid=       604
 IPart= 12 Atom   5 batch   19 overlaps    9 atoms,    59 shells and     9 DB shells.   NGrid=       604
 Symmetry reduced   302 angular points to   302 for atom    5.
 IPart= 12 Atom   5 batch   20 overlaps    9 atoms,    42 shells and     8 DB shells.   NGrid=       604
 IPart= 10 Atom   5 batch   21 overlaps    9 atoms,    26 shells and     5 DB shells.   NGrid=       604
 IPart= 12 Atom   5 batch   22 overlaps    9 atoms,    11 shells and     0 DB shells.   NGrid=       604
 IPart= 13 Atom   5 batch   23 overlaps    9 atoms,     4 shells and     0 DB shells.   NGrid=       302
 Pruned (  99, 590) grid will be used in numerical quadrature.
 IPart= 10 Atom number   6 atomic number  6 has       23114 grid points.
 IPart= 10 Atom   6 batch    1 overlaps    9 atoms,   101 shells and     9 DB shells.   NGrid=      2408
 Symmetry reduced    86 angular points to    86 for atom    6.
 Pruned (  99, 590) grid will be used in numerical quadrature.
 IPart= 15 Atom number   6 atomic number  6 has       23114 grid points.
 IPart= 15 Atom   6 batch    2 overlaps    9 atoms,   105 shells and     9 DB shells.   NGrid=      2522
 Pruned (  99, 590) grid will be used in numerical quadrature.
 Symmetry reduced   194 angular points to   194 for atom    6.
 IPart= 12 Atom number   6 atomic number  6 has       23114 grid points.
 IPart= 12 Atom   6 batch    3 overlaps    9 atoms,   106 shells and     9 DB shells.   NGrid=      2114
 Symmetry reduced   302 angular points to   302 for atom    6.
 Pruned (  99, 590) grid will be used in numerical quadrature.
 IPart= 13 Atom number   6 atomic number  6 has       23114 grid points.
 IPart= 13 Atom   6 batch    4 overlaps    9 atoms,   106 shells and     9 DB shells.   NGrid=      1180
 Symmetry reduced   590 angular points to   590 for atom    6.
 Pruned (  99, 590) grid will be used in numerical quadrature.
 IPart=  0 Atom number   6 atomic number  6 has       23114 grid points.
 IPart=  0 Atom   6 batch    5 overlaps    9 atoms,   106 shells and     9 DB shells.   NGrid=      1180
 Symmetry reduced   590 angular points to   590 for atom    6.
 Pruned (  99, 590) grid will be used in numerical quadrature.
 IPart=  4 Atom number   6 atomic number  6 has       23114 grid points.
 IPart=  4 Atom   6 batch    6 overlaps    9 atoms,   106 shells and     9 DB shells.   NGrid=      1180
 Symmetry reduced   590 angular points to   590 for atom    6.
 Pruned (  99, 590) grid will be used in numerical quadrature.
 IPart= 14 Atom number   6 atomic number  6 has       23114 grid points.
 IPart= 14 Atom   6 batch    7 overlaps    9 atoms,   106 shells and     9 DB shells.   NGrid=      1180
 Symmetry reduced   590 angular points to   590 for atom    6.
 Pruned (  99, 590) grid will be used in numerical quadrature.
 IPart=  9 Atom number   6 atomic number  6 has       23114 grid points.
 IPart=  9 Atom   6 batch    8 overlaps    9 atoms,   106 shells and     9 DB shells.   NGrid=      1180
[...]
 3431 Fit      -0.002834
 3432 Fit       0.000792
 3433 Fit       0.003297
 3434 Fit       0.004262
 3435 Fit       0.003567
 3436 Fit       0.001372
 3437 Fit      -0.001983
 3438 Fit      -0.010298
 3439 Fit      -0.002963
 3440 Fit       0.000129
 3441 Fit       0.000298
 3442 Fit      -0.002550
 3443 Fit      -0.005823
 3444 Fit      -0.006054
 3445 Fit      -0.002862
 3446 Fit       0.020550
 3447 Fit       0.020600
 3448 Fit       0.022794
 3449 Fit       0.023424
 3450 Fit       0.023578
 3451 Fit       0.023267
 3452 Fit       0.022504
 3453 Fit       0.023614
 3454 Fit       0.024646
 3455 Fit       0.025381
 3456 Fit       0.025808
 3457 Fit       0.025917
 3458 Fit       0.025711
 3459 Fit       0.025209
 3460 Fit       0.024449
 3461 Fit       0.025426
 3462 Fit       0.026177
 3463 Fit       0.026831
 3464 Fit       0.027328
 3465 Fit       0.027627
 3466 Fit       0.027706
 3467 Fit       0.027566
 3468 Fit       0.027227
 3469 Fit       0.026733
 3470 Fit       0.026156
 3471 Fit       0.027104
 3472 Fit       0.027530
 3473 Fit       0.028029
 3474 Fit       0.028477
 3475 Fit       0.028800
 3476 Fit       0.028957
 3477 Fit       0.028934
 3478 Fit       0.028739
 3479 Fit       0.028409
 3480 Fit       0.028013
 3481 Fit       0.027663
 3482 Fit       0.028261
 3483 Fit       0.028393
 3484 Fit       0.028742
 3485 Fit       0.029130
 3486 Fit       0.029455
 3487 Fit       0.029661
 3488 Fit       0.029719
 3489 Fit       0.029626
 3490 Fit       0.029405
 3491 Fit       0.029102
 3492 Fit       0.028807
 3493 Fit       0.028666
 3494 Fit       0.028695
 3495 Fit       0.028699
 3496 Fit       0.028978
 3497 Fit       0.029335
 3498 Fit       0.029656
 3499 Fit       0.029878
 3500 Fit       0.029968
 3501 Fit       0.029917
 3502 Fit       0.029739
 3503 Fit       0.029473
 3504 Fit       0.029193
 3505 Fit       0.029019
 3506 Fit       0.029166
 3507 Fit       0.028261
 3508 Fit       0.028393
 3509 Fit       0.028742
 3510 Fit       0.029130
 3511 Fit       0.029455
 3512 Fit       0.029661
 3513 Fit       0.029719
 3514 Fit       0.029626
 3515 Fit       0.029405
 3516 Fit       0.029102
 3517 Fit       0.028807
 3518 Fit       0.028666
 3519 Fit       0.027104
 3520 Fit       0.027530
 3521 Fit       0.028029
 3522 Fit       0.028477
 3523 Fit       0.028800
 3524 Fit       0.028957
 3525 Fit       0.028934
 3526 Fit       0.028739
 3527 Fit       0.028409
 3528 Fit       0.028013
 3529 Fit       0.027663
 3530 Fit       0.025426
 3531 Fit       0.026177
 3532 Fit       0.026831
 3533 Fit       0.027328
 3534 Fit       0.027627
 3535 Fit       0.027706
 3536 Fit       0.027566
 3537 Fit       0.027227
 3538 Fit       0.026733
 3539 Fit       0.026156
 3540 Fit       0.023614
 3541 Fit       0.024646
 3542 Fit       0.025381
 3543 Fit       0.025808
 3544 Fit       0.025917
 3545 Fit       0.025711
 3546 Fit       0.025209
 3547 Fit       0.024449
 3548 Fit       0.022794
 3549 Fit       0.023424
 3550 Fit       0.023578
 3551 Fit       0.023267
 3552 Fit       0.022504
 3553 Fit       0.020550
 3554 Fit       0.020600
 -----------------------------------------------------------------
 Leave Link  602 at Tue Sep 30 16:59:13 2025, MaxMem=  4294967296 cpu:               2.4 elap:               0.2
 (Enter /software/sse/easybuild/prefix/software/Gaussian/16.C.01-avx2-nsc1/g16/l701.exe)
 ... and contract with generalized density number  0.
 Compute integral first derivatives.
 Leave Link  701 at Tue Sep 30 16:59:13 2025, MaxMem=  4294967296 cpu:               2.5 elap:               0.2
 (Enter /software/sse/easybuild/prefix/software/Gaussian/16.C.01-avx2-nsc1/g16/l702.exe)
 L702 exits ... SP integral derivatives will be done elsewhere.
 Leave Link  702 at Tue Sep 30 16:59:13 2025, MaxMem=  4294967296 cpu:               0.3 elap:               0.0
 (Enter /software/sse/easybuild/prefix/software/Gaussian/16.C.01-avx2-nsc1/g16/l703.exe)
 Integral derivatives from FoFJK, PRISM(SPDF).
 Compute integral first derivatives, UseDBF=F ICtDFT=           0.
 Calling FoFJK, ICntrl=      2127 FMM=F ISym2X=1 I1Cent= 0 IOpClX= 0 NMat=1 NMatS=1 NMatT=0.
 FoFJK:  IHMeth= 1 ICntrl=    2127 DoSepK=F KAlg= 0 I1Cent=           0 FoldK=F
 IRaf=         0 NMat=       1 IRICut=       1 DoRegI=T DoRafI=F ISym2E= 1 IDoP0=0 IntGTp=1.
 FoFCou: FMM=F IPFlag=           0 FMFlag=      100000 FMFlg1=         800
         NFxFlg=           0 DoJE=F BraDBF=F KetDBF=F FulRan=T
         wScrn=  0.000000 ICntrl=      2127 IOpCl=  0 I1Cent=           0 NGrid=           0
         NMat0=    1 NMatS0=      1 NMatT0=    0 NMatD0=    1 NMtDS0=    0 NMtDT0=    0
 Petite list used in FoFCou.
 Leave Link  703 at Tue Sep 30 16:59:29 2025, MaxMem=  4294967296 cpu:             257.8 elap:              16.3
 (Enter /software/sse/easybuild/prefix/software/Gaussian/16.C.01-avx2-nsc1/g16/l716.exe)
 Dipole        = 4.22616142D-01 1.43050269D+00 0.00000000D+00
 ***** Axes restored to original set *****
 -------------------------------------------------------------------
 Center     Atomic                   Forces (Hartrees/Bohr)
 Number     Number              X              Y              Z
 -------------------------------------------------------------------
      1        6           0.000007023    0.000002104   -0.000000000
      2        1          -0.000002698   -0.000000843   -0.000000000
      3        6           0.000004407   -0.000006092   -0.000000000
      4        1          -0.000001018    0.000000634   -0.000000000
      5        7          -0.000002546   -0.000005436   -0.000000000
      6        6          -0.000002623    0.000002825   -0.000000000
      7        1          -0.000002000    0.000000786   -0.000000000
      8        7           0.000000083    0.000016682   -0.000000000
      9        1          -0.000000627   -0.000010661   -0.000000000
 -------------------------------------------------------------------
 Cartesian Forces:  Max     0.000016682 RMS     0.000004585
 Leave Link  716 at Tue Sep 30 16:59:30 2025, MaxMem=  4294967296 cpu:               0.4 elap:               0.0
 (Enter /software/sse/easybuild/prefix/software/Gaussian/16.C.01-avx2-nsc1/g16/l103.exe)

 GradGradGradGradGradGradGradGradGradGradGradGradGradGradGradGradGradGrad
 Berny optimization.
 FormGI is forming the generalized inverse of G from B-inverse, IUseBI=4.
 Internal  Forces:  Max     0.000010651 RMS     0.000002565
 Search for a local minimum.
 Step number   1 out of a maximum of   48
 All quantities printed in internal units (Hartrees-Bohrs-Radians)
 RMS Force = .25652D-05 SwitMx=.10000D-02 MixMth= 2
 Mixed Optimization -- En-DIIS/RFO-DIIS
 Second derivative matrix not updated -- first step.
 ITU=  0
     Eigenvalues ---    0.02236   0.02374   0.02409   0.02583   0.02639
     Eigenvalues ---    0.02744   0.16000   0.16000   0.16000   0.16000
     Eigenvalues ---    0.22000   0.22911   0.37316   0.37536   0.37703
     Eigenvalues ---    0.45355   0.48260   0.49655   0.51815   0.55494
     Eigenvalues ---    0.67929
 RFO step:  Lambda= 0.00000000D+00 EMin= 2.23617807D-02
 Linear search not attempted -- first point.
 Iteration  1 RMS(Cart)=  0.00000429 RMS(Int)=  0.00000000
 Iteration  2 RMS(Cart)=  0.00000000 RMS(Int)=  0.00000000
 ITry= 1 IFail=0 DXMaxC= 1.10D-05 DCOld= 1.00D+10 DXMaxT= 3.00D-01 DXLimC= 3.00D+00 Rises=F
 ClnCor:  largest displacement from symmetrization is 9.74D-13 for atom     2.
 Variable       Old X    -DE/DX   Delta X   Delta X   Delta X     New X
                                 (Linear)    (Quad)   (Total)
    R1        2.01500  -0.00000   0.00000  -0.00001  -0.00001   2.01499
    R2        2.54649   0.00001   0.00000   0.00001   0.00001   2.54649
    R3        2.58820   0.00001   0.00000   0.00001   0.00001   2.58821
    R4        2.01746  -0.00000   0.00000  -0.00000  -0.00000   2.01746
    R5        2.58996   0.00000   0.00000   0.00001   0.00001   2.58997
    R6        2.43031   0.00001   0.00000   0.00001   0.00001   2.43032
    R7        2.02072   0.00000   0.00000   0.00001   0.00001   2.02072
    R8        2.54355   0.00000   0.00000   0.00001   0.00001   2.54355
    R9        1.86915  -0.00001   0.00000  -0.00002  -0.00002   1.86913
    A1        2.30569  -0.00000   0.00000  -0.00000  -0.00000   2.30569
    A2        2.13985  -0.00000   0.00000  -0.00000  -0.00000   2.13985
    A3        1.83764   0.00000   0.00000   0.00000   0.00000   1.83764
    A4        2.23532   0.00000   0.00000   0.00001   0.00001   2.23533
    A5        1.92468  -0.00000   0.00000  -0.00000  -0.00000   1.92468
    A6        2.12318  -0.00000   0.00000  -0.00000  -0.00000   2.12318
    A7        1.84081   0.00000   0.00000   0.00000   0.00000   1.84081
    A8        2.19215   0.00000   0.00000  -0.00000  -0.00000   2.19215
    A9        1.95696   0.00000   0.00000   0.00000   0.00000   1.95697
   A10        2.13407  -0.00000   0.00000  -0.00000  -0.00000   2.13407
   A11        1.86468  -0.00000   0.00000  -0.00000  -0.00000   1.86468
   A12        2.21350   0.00000   0.00000   0.00001   0.00001   2.21351
   A13        2.20500  -0.00000   0.00000  -0.00000  -0.00000   2.20500
    D1        0.00000   0.00000   0.00000   0.00000   0.00000   0.00000
    D2        3.14159   0.00000   0.00000   0.00000   0.00000   3.14159
    D3        3.14159  -0.00000   0.00000   0.00000   0.00000   3.14159
    D4        0.00000   0.00000   0.00000  -0.00000   0.00000   0.00000
    D5        3.14159  -0.00000   0.00000  -0.00000   0.00000   3.14159
    D6        0.00000  -0.00000   0.00000  -0.00000   0.00000   0.00000
    D7        0.00000  -0.00000   0.00000  -0.00000   0.00000   0.00000
    D8        3.14159  -0.00000   0.00000   0.00000   0.00000   3.14159
    D9        0.00000   0.00000   0.00000   0.00000   0.00000   0.00000
   D10        3.14159   0.00000   0.00000   0.00000   0.00000   3.14159
   D11        3.14159   0.00000   0.00000  -0.00000   0.00000   3.14159
   D12        0.00000  -0.00000   0.00000  -0.00000   0.00000   0.00000
   D13        0.00000   0.00000   0.00000   0.00000   0.00000   0.00000
   D14        3.14159   0.00000   0.00000   0.00000   0.00000   3.14159
   D15        3.14159  -0.00000   0.00000   0.00000   0.00000   3.14159
   D16        0.00000  -0.00000   0.00000  -0.00000   0.00000   0.00000
         Item               Value     Threshold  Converged?
 Maximum Force            0.000011     0.000015     YES
 RMS     Force            0.000003     0.000010     YES
 Maximum Displacement     0.000011     0.000060     YES
 RMS     Displacement     0.000004     0.000040     YES
 Predicted change in Energy=-2.457757D-10
 Optimization completed.
    -- Stationary point found.
                           ----------------------------
                           !   Optimized Parameters   !
                           ! (Angstroms and Degrees)  !
 --------------------------                            --------------------------
 ! Name  Definition              Value          Derivative Info.                !
 --------------------------------------------------------------------------------
 ! R1    R(1,2)                  1.0663         -DE/DX =    0.0                 !
 ! R2    R(1,3)                  1.3475         -DE/DX =    0.0                 !
 ! R3    R(1,8)                  1.3696         -DE/DX =    0.0                 !
 ! R4    R(3,4)                  1.0676         -DE/DX =    0.0                 !
 ! R5    R(3,5)                  1.3705         -DE/DX =    0.0                 !
 ! R6    R(5,6)                  1.2861         -DE/DX =    0.0                 !
 ! R7    R(6,7)                  1.0693         -DE/DX =    0.0                 !
 ! R8    R(6,8)                  1.346          -DE/DX =    0.0                 !
 ! R9    R(8,9)                  0.9891         -DE/DX =    0.0                 !
 ! A1    A(2,1,3)              132.1063         -DE/DX =    0.0                 !
 ! A2    A(2,1,8)              122.6046         -DE/DX =    0.0                 !
 ! A3    A(3,1,8)              105.2891         -DE/DX =    0.0                 !
 ! A4    A(1,3,4)              128.0746         -DE/DX =    0.0                 !
 ! A5    A(1,3,5)              110.2761         -DE/DX =    0.0                 !
 ! A6    A(4,3,5)              121.6493         -DE/DX =    0.0                 !
 ! A7    A(3,5,6)              105.4707         -DE/DX =    0.0                 !
 ! A8    A(5,6,7)              125.601          -DE/DX =    0.0                 !
 ! A9    A(5,6,8)              112.1258         -DE/DX =    0.0                 !
 ! A10   A(7,6,8)              122.2732         -DE/DX =    0.0                 !
 ! A11   A(1,8,6)              106.8382         -DE/DX =    0.0                 !
 ! A12   A(1,8,9)              126.8245         -DE/DX =    0.0                 !
 ! A13   A(6,8,9)              126.3373         -DE/DX =    0.0                 !
 ! D1    D(2,1,3,4)              0.0            -DE/DX =    0.0                 !
 ! D2    D(2,1,3,5)            180.0            -DE/DX =    0.0                 !
 ! D3    D(8,1,3,4)            180.0            -DE/DX =    0.0                 !
 ! D4    D(8,1,3,5)              0.0            -DE/DX =    0.0                 !
 ! D5    D(2,1,8,6)            180.0            -DE/DX =    0.0                 !
 ! D6    D(2,1,8,9)              0.0            -DE/DX =    0.0                 !
 ! D7    D(3,1,8,6)              0.0            -DE/DX =    0.0                 !
 ! D8    D(3,1,8,9)            180.0            -DE/DX =    0.0                 !
 ! D9    D(1,3,5,6)              0.0            -DE/DX =    0.0                 !
 ! D10   D(4,3,5,6)            180.0            -DE/DX =    0.0                 !
 ! D11   D(3,5,6,7)            180.0            -DE/DX =    0.0                 !
 ! D12   D(3,5,6,8)              0.0            -DE/DX =    0.0                 !
 ! D13   D(5,6,8,1)              0.0            -DE/DX =    0.0                 !
 ! D14   D(5,6,8,9)            180.0            -DE/DX =    0.0                 !
 ! D15   D(7,6,8,1)            180.0            -DE/DX =    0.0                 !
 ! D16   D(7,6,8,9)              0.0            -DE/DX =    0.0                 !
 --------------------------------------------------------------------------------
 Lowest energy point so far.  Saving SCF results.
 Largest change from initial coordinates is atom    4       0.000 Angstoms.
 GradGradGradGradGradGradGradGradGradGradGradGradGradGradGradGradGradGrad

 Leave Link  103 at Tue Sep 30 16:59:30 2025, MaxMem=  4294967296 cpu:               3.3 elap:               0.2
 (Enter /software/sse/easybuild/prefix/software/Gaussian/16.C.01-avx2-nsc1/g16/l202.exe)
                          Input orientation:                          
 ---------------------------------------------------------------------
 Center     Atomic      Atomic             Coordinates (Angstroms)
 Number     Number       Type             X           Y           Z
 ---------------------------------------------------------------------
      1          6           0        1.107520    0.286750    0.000000
      2          1           0        2.100580    0.675090    0.000000
      3          6           0        0.630140   -0.973400    0.000000
      4          1           0        1.182820   -1.886800    0.000000
      5          7           0       -0.740360   -0.962110    0.000000
      6          6           0       -1.073190    0.280140    0.000000
      7          1           0       -2.074120    0.656410    0.000000
      8          7           0        0.000000    1.092510    0.000000
      9          1           0       -0.013590    2.081530    0.000000
 ---------------------------------------------------------------------
                    Distance matrix (angstroms):
                    1          2          3          4          5
     1  C    0.000000
     2  H    1.066291   0.000000
     3  C    1.347542   2.209007   0.000000
     4  H    2.174854   2.721317   1.067593   0.000000
     5  N    2.230317   3.278927   1.370547   2.133934   0.000000
     6  C    2.180720   3.198250   2.114875   3.128132   1.286064
     7  H    3.203043   4.174742   3.157420   4.132260   2.097266
     8  N    1.369617   2.141653   2.159875   3.205519   2.183941
     9  H    2.116158   2.539250   3.122016   4.144761   3.129207
                    6          7          8          9
     6  C    0.000000
     7  H    1.069318   0.000000
     8  N    1.345987   2.119471   0.000000
     9  H    2.089918   2.505344   0.989113   0.000000
 Stoichiometry    C3H4N2
 Framework group  CS[SG(C3H4N2)]
 Deg. of freedom    15
 Full point group                 CS      NOp   2
 RotChk:  IX=0 Diff= 2.24D-16
 Largest Abelian subgroup         CS      NOp   2
 Largest concise Abelian subgroup C1      NOp   1
                         Standard orientation:                         
 ---------------------------------------------------------------------
 Center     Atomic      Atomic             Coordinates (Angstroms)
 Number     Number       Type             X           Y           Z
 ---------------------------------------------------------------------
      1          6           0        1.107520    0.286751    0.000000
      2          1           0        2.100580    0.675091    0.000000
      3          6           0        0.630141   -0.973399    0.000000
      4          1           0        1.182821   -1.886799    0.000000
      5          7           0       -0.740359   -0.962109    0.000000
      6          6           0       -1.073190    0.280141    0.000000
      7          1           0       -2.074120    0.656410    0.000000
      8          7           0        0.000000    1.092511    0.000000
      9          1           0       -0.013590    2.081531    0.000000
 ---------------------------------------------------------------------
 Rotational constants (GHZ):           9.9449205           9.6958035           4.9093911
 Leave Link  202 at Tue Sep 30 16:59:30 2025, MaxMem=  4294967296 cpu:               0.1 elap:               0.0
 (Enter /software/sse/easybuild/prefix/software/Gaussian/16.C.01-avx2-nsc1/g16/l9999.exe)

 Test job not archived.
 1\1\NSC-N1094\FOpt\RHF\Aug-CC-pVTZ\C3H4N2\X_DAVVA\30-Sep-2025\0\\#P HF
 /aug-cc-pvtz Opt=tight Pop=(MK,Hirshfeld) iop(6/33=2) iop(6/42=6) maxd
 isk=128GB\\imidazole\\0,1\C,1.10752,0.28675,0.\H,2.10058,0.67509,0.\C,
 0.63014,-0.9734,0.\H,1.18282,-1.8868,0.\N,-0.74036,-0.96211,0.\C,-1.07
 319,0.28014,0.\H,-2.07412,0.65641,0.\N,0.,1.09251,0.\H,-0.01359,2.0815
 3,0.\\Version=ES64L-G16RevC.01\State=1-A'\HF=-224.9001219\RMSD=3.356e-
 09\RMSF=4.585e-06\Dipole=0.4226165,1.4305026,0.\Quadrupole=1.1903936,1
 .7615483,-2.9519419,-2.6286957,0.,0.\PG=CS [SG(C3H4N2)]\\@


 I WOULD TAKE COUNSEL OF MYSELF.
 I WOULD STOP AND LOOK WITHIN
 AND LOOKING WITHIN, LOOK BACK, ALSO
 THAT I MAY LOOK AHEAD WITH CLEARER UNDERSTANDING
 OF THE WAY I HAVE BEEN MOVING, AND IN WHAT DIRECTION.
 I NEED TO KNOW IF I AM GOING FORWARD OR RETREATING,
 WHETHER I HAVE BEEN WASTING, OR ENJOYING
 THE PRECIOUS MOMENTS OF LIFE.  THERE HAVE BEEN FRICTIONS,
 ANNOYANCES AND SOMETIMES WRATH,
 BUT WERE THEY BECAUSE I WAS RIGHT AND OTHERS WRONG.....
 HAVE I HAD MY THOUGHTS TOO SHARPLY FOCUSED
 ON THAT WHICH PLEASED ME, SERVED MY SELF-ESTEEM,
 UNDERGIRDED MY SECURITY,
 OF WHICH I DID NOT INQUIRE WHETHER IT SERVED OR HAMPERED OTHERS.....
 HAVE I BEEN TRYING TO STOP THE CLOCK
 TO HOLD THE WORLD
 IN PERPETUATION OF WHAT WAS AN IS ALREADY SLIPPING AWAY.....
 HAVE I BEEN CRITICAL OF OTHERS FOR WHAT REALLY NEEDED CHANGING IN ME...
 LET ME INDEED TAKE COUNSEL OF MYSELF
 AND SET MY DIRECTIONS STRAIGHT.

                          R.T. WESTON AS ADAPTED BY D. OSBORN 1967
 Job cpu time:       0 days  0 hours  8 minutes 15.0 seconds.
 Elapsed time:       0 days  0 hours  0 minutes 37.4 seconds.
 File lengths (MBytes):  RWF=     43 Int=      0 D2E=      0 Chk=     12 Scr=      1
 Normal termination of Gaussian 16 at Tue Sep 30 16:59:30 2025.
