 Entering Gaussian System, Link 0=/software/sse/easybuild/prefix/software/Gaussian/16.C.01-avx2-nsc1/g16/g16.orig
 Input=imidazole.wrap
 Output=imidazole.log
 Initial command:
 /software/sse/easybuild/prefix/software/Gaussian/16.C.01-avx2-nsc1/g16/l1.exe "/scratch/local/Gau-2646849.inp" -scrdir="/scratch/local/"
 Entering Link 1 = /software/sse/easybuild/prefix/software/Gaussian/16.C.01-avx2-nsc1/g16/l1.exe PID=   2646894.
  
 Copyright (c) 1988-2019, Gaussian, Inc.  All Rights Reserved.
  
 This is part of the Gaussian(R) 16 program.  It is based on
 the Gaussian(R) 09 system (copyright 2009, Gaussian, Inc.),
 the Gaussian(R) 03 system (copyright 2003, Gaussian, Inc.),
 the Gaussian(R) 98 system (copyright 1998, Gaussian, Inc.),
 the Gaussian(R) 94 system (copyright 1995, Gaussian, Inc.),
 the Gaussian 92(TM) system (copyright 1992, Gaussian, Inc.),
 the Gaussian 90(TM) system (copyright 1990, Gaussian, Inc.),
 the Gaussian 88(TM) system (copyright 1988, Gaussian, Inc.),
 the Gaussian 86(TM) system (copyright 1986, Carnegie Mellon
 University), and the Gaussian 82(TM) system (copyright 1983,
 Carnegie Mellon University). Gaussian is a federally registered
 trademark of Gaussian, Inc.
  
 This software contains proprietary and confidential information,
 including trade secrets, belonging to Gaussian, Inc.
  
 This software is provided under written license and may be
 used, copied, transmitted, or stored only in accord with that
 written license.
  
 The following legend is applicable only to US Government
 contracts under FAR:
  
                    RESTRICTED RIGHTS LEGEND
  
 Use, reproduction and disclosure by the US Government is
 subject to restrictions as set forth in subparagraphs (a)
 and (c) of the Commercial Computer Software - Restricted
 Rights clause in FAR 52.227-19.
  
 Gaussian, Inc.
 340 Quinnipiac St., Bldg. 40, Wallingford CT 06492
  
  
 ---------------------------------------------------------------
 Warning -- This program may not be used in any manner that
 competes with the business of Gaussian, Inc. or will provide
 assistance to any competitor of Gaussian, Inc.  The licensee
 of this program is prohibited from giving any competitor of
 Gaussian, Inc. access to this program.  By using this program,
 the user acknowledges that Gaussian, Inc. is engaged in the
 business of creating and licensing software in the field of
 computational chemistry and represents and warrants to the
 licensee that it is not a competitor of Gaussian, Inc. and that
 it will not use this program in any manner prohibited above.
 ---------------------------------------------------------------
  

 Cite this work as:
 Gaussian 16, Revision C.01,
 M. J. Frisch, G. W. Trucks, H. B. Schlegel, G. E. Scuseria, 
 M. A. Robb, J. R. Cheeseman, G. Scalmani, V. Barone, 
 G. A. Petersson, H. Nakatsuji, X. Li, M. Caricato, A. V. Marenich, 
 J. Bloino, B. G. Janesko, R. Gomperts, B. Mennucci, H. P. Hratchian, 
 J. V. Ortiz, A. F. Izmaylov, J. L. Sonnenberg, D. Williams-Young, 
 F. Ding, F. Lipparini, F. Egidi, J. Goings, B. Peng, A. Petrone, 
 T. Henderson, D. Ranasinghe, V. G. Zakrzewski, J. Gao, N. Rega, 
 G. Zheng, W. Liang, M. Hada, M. Ehara, K. Toyota, R. Fukuda, 
 J. Hasegawa, M. Ishida, T. Nakajima, Y. Honda, O. Kitao, H. Nakai, 
 T. Vreven, K. Throssell, J. A. Montgomery, Jr., J. E. Peralta, 
 F. Ogliaro, M. J. Bearpark, J. J. Heyd, E. N. Brothers, K. N. Kudin, 
 V. N. Staroverov, T. A. Keith, R. Kobayashi, J. Normand, 
 K. Raghavachari, A. P. Rendell, J. C. Burant, S. S. Iyengar, 
 J. Tomasi, M. Cossi, J. M. Millam, M. Klene, C. Adamo, R. Cammi, 
 J. W. Ochterski, R. L. Martin, K. Morokuma, O. Farkas, 
 J. B. Foresman, and D. J. Fox, Gaussian, Inc., Wallingford CT, 2019.
 
 ******************************************
 Gaussian 16:  ES64L-G16RevC.01  3-Jul-2019
                28-Sep-2025 
 ******************************************
 %mem=12000MB
 %nprocshared=8
 Will use up to    8 processors via shared memory.
 %chk=water19.chk
 ----------------------------------------------------------------------
 #P HF/aug-cc-pvtz Opt=(Redundant, calcall, verytight) symm=(loose,foll
 ow) Pop=(MK,Hirshfeld,ReadRadii) iop(6/33=2) iop(6/42=6) Polar Freq ma
 xdisk=128GB
 ----------------------------------------------------------------------
 1/7=1,10=4,18=20,19=15,38=1/1,3;
 2/9=110,12=2,17=4,18=3,40=1/2;
 3/5=16,6=1,7=10,11=9,25=1,30=1,71=2,140=1/1,2,3;
 4//1;
 5/5=2,38=5,98=1/2;
 8/6=4,10=90,11=11/1;
 11/6=1,8=1,9=11,15=111,16=1/1,2,10;
 10/6=1/2;
 6/7=2,8=2,9=2,10=2,15=8,18=1,20=101,28=1,33=2,42=6,79=1/1,2;
 7/10=1,25=1/1,2,3,16;
 1/7=1,10=4,18=20,19=15/3(3);
 2/9=110,15=5/2;
 7/8=1,9=1,25=1,44=-1/16;
 99//99;
 2/9=110,15=5/2;
 3/5=16,6=1,7=10,11=9,25=1,30=1,71=2,140=1/1,2,3;
 4/5=5,16=3,69=1/1;
 5/5=2,38=5,98=1/2;
 8/6=4,10=90,11=11/1;
 11/6=1,8=1,9=11,15=111,16=1/1,2,10;
 10/6=1/2;
 7/10=1,25=1/1,2,3,16;
 1/7=1,10=4,18=20,19=15/3(-8);
 2/9=110,15=5/2;
 6/7=2,8=2,9=2,10=2,15=8,18=1,19=2,20=101,28=1,33=2,42=6,79=1/1,2;
 7/8=1,9=1,25=1,44=-1/16;
 99//99;
 Leave Link    1 at Sun Sep 28 20:46:06 2025, MaxMem=  1572864000 cpu:               0.7 elap:               0.1
 (Enter /software/sse/easybuild/prefix/software/Gaussian/16.C.01-avx2-nsc1/g16/l101.exe)
 ---------
 imidazole
 ---------
 Symbolic Z-matrix:
 Charge =  0 Multiplicity = 1
 C                     1.14526   0.32034   0. 
 H                     2.14136   0.7211    0. 
 C                     0.66737  -0.96716   0. 
 H                     1.21655  -1.8893    0. 
 N                    -0.72964  -0.96636   0. 
 C                    -1.08859   0.31218   0. 
 H                    -2.097     0.68101   0. 
 N                     0.01728   1.13431   0. 
 H                     0.01588   2.13825   0. 
 
 ITRead=  0  0  0  0  0  0  0  0  0
 MicOpt= -1 -1 -1 -1 -1 -1 -1 -1 -1
 NAtoms=      9 NQM=        9 NQMF=       0 NMMI=      0 NMMIF=      0
                NMic=       0 NMicF=      0.
                    Isotopes and Nuclear Properties:
 (Nuclear quadrupole moments (NQMom) in fm**2, nuclear magnetic moments (NMagM)
  in nuclear magnetons)

  Atom         1           2           3           4           5           6           7           8           9
 IAtWgt=          12           1          12           1          14          12           1          14           1
 AtmWgt=  12.0000000   1.0078250  12.0000000   1.0078250  14.0030740  12.0000000   1.0078250  14.0030740   1.0078250
 NucSpn=           0           1           0           1           2           0           1           2           1
 AtZEff=  -0.0000000  -0.0000000  -0.0000000  -0.0000000  -0.0000000  -0.0000000  -0.0000000  -0.0000000  -0.0000000
 NQMom=    0.0000000   0.0000000   0.0000000   0.0000000   2.0440000   0.0000000   0.0000000   2.0440000   0.0000000
 NMagM=    0.0000000   2.7928460   0.0000000   2.7928460   0.4037610   0.0000000   2.7928460   0.4037610   2.7928460
 AtZNuc=   6.0000000   1.0000000   6.0000000   1.0000000   7.0000000   6.0000000   1.0000000   7.0000000   1.0000000
 Leave Link  101 at Sun Sep 28 20:46:07 2025, MaxMem=  1572864000 cpu:               2.1 elap:               0.3
 (Enter /software/sse/easybuild/prefix/software/Gaussian/16.C.01-avx2-nsc1/g16/l103.exe)

 GradGradGradGradGradGradGradGradGradGradGradGradGradGradGradGradGradGrad
 Berny optimization.
 Initialization pass.
                           ----------------------------
                           !    Initial Parameters    !
                           ! (Angstroms and Degrees)  !
 --------------------------                            --------------------------
 ! Name  Definition              Value          Derivative Info.                !
 --------------------------------------------------------------------------------
 ! R1    R(1,2)                  1.0737         calculate D2E/DX2 analytically  !
 ! R2    R(1,3)                  1.3733         calculate D2E/DX2 analytically  !
 ! R3    R(1,8)                  1.391          calculate D2E/DX2 analytically  !
 ! R4    R(3,4)                  1.0733         calculate D2E/DX2 analytically  !
 ! R5    R(3,5)                  1.397          calculate D2E/DX2 analytically  !
 ! R6    R(5,6)                  1.328          calculate D2E/DX2 analytically  !
 ! R7    R(6,7)                  1.0737         calculate D2E/DX2 analytically  !
 ! R8    R(6,8)                  1.378          calculate D2E/DX2 analytically  !
 ! R9    R(8,9)                  1.0039         calculate D2E/DX2 analytically  !
 ! A1    A(2,1,3)              132.2799         calculate D2E/DX2 analytically  !
 ! A2    A(2,1,8)              122.269          calculate D2E/DX2 analytically  !
 ! A3    A(3,1,8)              105.4511         calculate D2E/DX2 analytically  !
 ! A4    A(1,3,4)              128.8605         calculate D2E/DX2 analytically  !
 ! A5    A(1,3,5)              110.3309         calculate D2E/DX2 analytically  !
 ! A6    A(4,3,5)              120.8085         calculate D2E/DX2 analytically  !
 ! A7    A(3,5,6)              105.7146         calculate D2E/DX2 analytically  !
 ! A8    A(5,6,7)              125.7719         calculate D2E/DX2 analytically  !
 ! A9    A(5,6,8)              110.9462         calculate D2E/DX2 analytically  !
 ! A10   A(7,6,8)              123.282          calculate D2E/DX2 analytically  !
 ! A11   A(1,8,6)              107.5573         calculate D2E/DX2 analytically  !
 ! A12   A(1,8,9)              125.8947         calculate D2E/DX2 analytically  !
 ! A13   A(6,8,9)              126.5481         calculate D2E/DX2 analytically  !
 ! D1    D(2,1,3,4)              0.0            calculate D2E/DX2 analytically  !
 ! D2    D(2,1,3,5)            180.0            calculate D2E/DX2 analytically  !
 ! D3    D(8,1,3,4)            180.0            calculate D2E/DX2 analytically  !
 ! D4    D(8,1,3,5)              0.0            calculate D2E/DX2 analytically  !
 ! D5    D(2,1,8,6)            180.0            calculate D2E/DX2 analytically  !
 ! D6    D(2,1,8,9)              0.0            calculate D2E/DX2 analytically  !
 ! D7    D(3,1,8,6)              0.0            calculate D2E/DX2 analytically  !
 ! D8    D(3,1,8,9)            180.0            calculate D2E/DX2 analytically  !
 ! D9    D(1,3,5,6)              0.0            calculate D2E/DX2 analytically  !
 ! D10   D(4,3,5,6)            180.0            calculate D2E/DX2 analytically  !
 ! D11   D(3,5,6,7)            180.0            calculate D2E/DX2 analytically  !
 ! D12   D(3,5,6,8)              0.0            calculate D2E/DX2 analytically  !
 ! D13   D(5,6,8,1)              0.0            calculate D2E/DX2 analytically  !
 ! D14   D(5,6,8,9)            180.0            calculate D2E/DX2 analytically  !
 ! D15   D(7,6,8,1)            180.0            calculate D2E/DX2 analytically  !
 ! D16   D(7,6,8,9)              0.0            calculate D2E/DX2 analytically  !
 --------------------------------------------------------------------------------
 Trust Radius=3.00D-01 FncErr=1.00D-07 GrdErr=1.00D-07 EigMax=2.50D+02 EigMin=1.00D-04
 Number of steps in this run=     48 maximum allowed number of steps=    100.
 GradGradGradGradGradGradGradGradGradGradGradGradGradGradGradGradGradGrad

 Leave Link  103 at Sun Sep 28 20:46:07 2025, MaxMem=  1572864000 cpu:               0.3 elap:               0.1
 (Enter /software/sse/easybuild/prefix/software/Gaussian/16.C.01-avx2-nsc1/g16/l202.exe)
                          Input orientation:                          
 ---------------------------------------------------------------------
 Center     Atomic      Atomic             Coordinates (Angstroms)
 Number     Number       Type             X           Y           Z
 ---------------------------------------------------------------------
      1          6           0        1.145260    0.320339    0.000000
      2          1           0        2.141358    0.721096    0.000000
      3          6           0        0.667373   -0.967161    0.000000
      4          1           0        1.216551   -1.889301    0.000000
      5          7           0       -0.729643   -0.966362    0.000000
      6          6           0       -1.088588    0.312180    0.000000
      7          1           0       -2.097004    0.681008    0.000000
      8          7           0        0.017277    1.134306    0.000000
      9          1           0        0.015876    2.138249    0.000000
 ---------------------------------------------------------------------
                    Distance matrix (angstroms):
                    1          2          3          4          5
     1  C    0.000000
     2  H    1.073694   0.000000
     3  C    1.373328   2.241170   0.000000
     4  H    2.210790   2.769375   1.073284   0.000000
     5  N    2.273952   3.330190   1.397016   2.153947   0.000000
     6  C    2.233862   3.255728   2.172581   3.187504   1.327973
     7  H    3.262262   4.238552   3.218422   4.193583   2.140913
     8  N    1.391002   2.163900   2.199724   3.252762   2.229506
     9  H    2.140164   2.554603   3.173014   4.202711   3.192869
                    6          7          8          9
     6  C    0.000000
     7  H    1.073749   0.000000
     8  N    1.377980   2.162328   0.000000
     9  H    2.134097   2.566674   1.003944   0.000000
 Stoichiometry    C3H4N2
 Framework group  CS[SG(C3H4N2)]
 Deg. of freedom    15
 Full point group                 CS      NOp   2
 Largest Abelian subgroup         CS      NOp   2
 Largest concise Abelian subgroup C1      NOp   1
                         Standard orientation:                         
 ---------------------------------------------------------------------
 Center     Atomic      Atomic             Coordinates (Angstroms)
 Number     Number       Type             X           Y           Z
 ---------------------------------------------------------------------
      1          6           0        1.127728    0.297242    0.000000
      2          1           0        2.123952    0.697687    0.000000
      3          6           0        0.649438   -0.990108    0.000000
      4          1           0        1.198328   -1.912420    0.000000
      5          7           0       -0.747577   -0.988873    0.000000
      6          6           0       -1.106122    0.289781    0.000000
      7          1           0       -2.114422    0.658925    0.000000
      8          7           0       -0.000000    1.111562    0.000000
      9          1           0       -0.001087    2.115505    0.000000
 ---------------------------------------------------------------------
 Rotational constants (GHZ):           9.5401843           9.3155649           4.7132683
 Leave Link  202 at Sun Sep 28 20:46:07 2025, MaxMem=  1572864000 cpu:               0.1 elap:               0.0
 (Enter /software/sse/easybuild/prefix/software/Gaussian/16.C.01-avx2-nsc1/g16/l301.exe)
 Standard basis: Aug-CC-pVTZ (5D, 7F)
 Ernie: Thresh=  0.10000D-02 Tol=  0.10000D-05 Strict=F.
 Ernie:  15 primitive shells out of 194 were deleted.
 There are   257 symmetry adapted cartesian basis functions of A'  symmetry.
 There are   118 symmetry adapted cartesian basis functions of A"  symmetry.
 There are   214 symmetry adapted basis functions of A'  symmetry.
 There are   108 symmetry adapted basis functions of A"  symmetry.
   322 basis functions,   468 primitive gaussians,   375 cartesian basis functions
    18 alpha electrons       18 beta electrons
       nuclear repulsion energy       162.0143066721 Hartrees.
 IExCor=    0 DFT=F Ex=HF Corr=None ExCW=0 ScaHFX=  1.000000
 ScaDFX=  1.000000  1.000000  1.000000  1.000000 ScalE2=  1.000000  1.000000
 IRadAn=      5 IRanWt=     -1 IRanGd=            0 ICorTp=0 IEmpDi=  4
 NAtoms=    9 NActive=    9 NUniq=    9 SFac= 1.00D+00 NAtFMM=   60 NAOKFM=F Big=F
 Integral buffers will be    131072 words long.
 Raffenetti 1 integral format.
 Two-electron integral symmetry is turned on.
 Leave Link  301 at Sun Sep 28 20:46:07 2025, MaxMem=  1572864000 cpu:               0.6 elap:               0.1
 (Enter /software/sse/easybuild/prefix/software/Gaussian/16.C.01-avx2-nsc1/g16/l302.exe)
 NPDir=0 NMtPBC=     1 NCelOv=     1 NCel=       1 NClECP=     1 NCelD=      1
         NCelK=      1 NCelE2=     1 NClLst=     1 CellRange=     0.0.
 One-electron integrals computed using PRISM.
 One-electron integral symmetry used in STVInt
 NBasis=   322 RedAO= T EigKep=  7.13D-06  NBF=   214   108
 NBsUse=   322 1.00D-06 EigRej= -1.00D+00 NBFU=   214   108
 Leave Link  302 at Sun Sep 28 20:46:07 2025, MaxMem=  1572864000 cpu:               1.3 elap:               0.2
 (Enter /software/sse/easybuild/prefix/software/Gaussian/16.C.01-avx2-nsc1/g16/l303.exe)
 DipDrv:  MaxL=1.
 Leave Link  303 at Sun Sep 28 20:46:07 2025, MaxMem=  1572864000 cpu:               0.8 elap:               0.1
 (Enter /software/sse/easybuild/prefix/software/Gaussian/16.C.01-avx2-nsc1/g16/l401.exe)
 ExpMin= 2.53D-02 ExpMax= 1.14D+04 ExpMxC= 3.89D+02 IAcc=3 IRadAn=         5 AccDes= 0.00D+00
 Harris functional with IExCor=  205 and IRadAn=       5 diagonalized for initial guess.
 HarFok:  IExCor=  205 AccDes= 0.00D+00 IRadAn=         5 IDoV= 1 UseB2=F ITyADJ=14
 ICtDFT=  3500011 ScaDFX=  1.000000  1.000000  1.000000  1.000000
 FoFCou: FMM=F IPFlag=           0 FMFlag=      100000 FMFlg1=           0
         NFxFlg=           0 DoJE=T BraDBF=F KetDBF=T FulRan=T
         wScrn=  0.000000 ICntrl=       500 IOpCl=  0 I1Cent=   200000004 NGrid=           0
         NMat0=    1 NMatS0=      1 NMatT0=    0 NMatD0=    1 NMtDS0=    0 NMtDT0=    0
 Petite list used in FoFCou.
 Harris En= -225.159182813507    
 JPrj=0 DoOrth=F DoCkMO=F.
 Initial guess orbital symmetries:
       Occupied  (A') (A') (A') (A') (A') (A') (A') (A') (A') (A')
                 (A') (A') (A') (A') (A") (A') (A") (A")
       Virtual   (A") (A") (A') (A') (A') (A') (A') (A") (A') (A')
                 (A") (A') (A") (A') (A') (A') (A') (A') (A') (A')
                 (A") (A') (A') (A") (A') (A") (A') (A') (A') (A')
                 (A') (A') (A") (A') (A") (A") (A') (A') (A') (A")
                 (A') (A") (A') (A') (A') (A') (A") (A') (A') (A")
                 (A') (A") (A') (A') (A") (A') (A') (A') (A') (A')
                 (A") (A') (A') (A") (A') (A") (A') (A") (A') (A')
                 (A") (A') (A") (A') (A") (A') (A') (A') (A') (A')
                 (A') (A") (A") (A') (A') (A") (A") (A') (A') (A")
                 (A') (A') (A') (A") (A') (A") (A') (A") (A') (A")
                 (A') (A') (A') (A") (A') (A") (A') (A') (A") (A')
                 (A") (A') (A') (A") (A') (A") (A') (A') (A") (A')
                 (A') (A") (A') (A") (A') (A') (A") (A') (A") (A')
                 (A') (A") (A') (A') (A") (A') (A") (A') (A') (A')
                 (A") (A") (A') (A') (A") (A') (A') (A') (A') (A")
                 (A") (A') (A') (A") (A') (A') (A") (A') (A') (A")
                 (A') (A") (A') (A") (A') (A") (A') (A') (A') (A')
                 (A') (A") (A") (A') (A') (A") (A') (A') (A") (A')
                 (A") (A') (A') (A') (A") (A') (A') (A") (A') (A')
                 (A") (A") (A') (A') (A') (A') (A") (A") (A') (A")
                 (A') (A") (A") (A') (A") (A') (A') (A") (A') (A')
                 (A") (A") (A') (A") (A') (A") (A') (A') (A') (A')
                 (A') (A") (A') (A") (A') (A') (A") (A') (A') (A")
                 (A') (A') (A') (A") (A") (A') (A') (A") (A') (A")
                 (A') (A") (A') (A') (A') (A') (A") (A') (A") (A')
                 (A') (A") (A') (A") (A") (A') (A") (A') (A') (A')
                 (A') (A") (A') (A") (A') (A") (A") (A') (A") (A')
                 (A') (A') (A") (A") (A') (A") (A") (A') (A") (A')
                 (A') (A") (A') (A') (A') (A") (A') (A') (A') (A')
                 (A') (A') (A') (A') (A') (A') (A') (A') (A') (A')
                 (A') (A') (A') (A')
 The electronic state of the initial guess is 1-A'.
 Leave Link  401 at Sun Sep 28 20:46:08 2025, MaxMem=  1572864000 cpu:               3.0 elap:               0.4
 (Enter /software/sse/easybuild/prefix/software/Gaussian/16.C.01-avx2-nsc1/g16/l502.exe)
 Integral symmetry usage will be decided dynamically.
 Closed shell SCF:
 Using DIIS extrapolation, IDIIS=  1040.
 NGot=  1572864000 LenX=  1572575631 LenY=  1572434565
 Requested convergence on RMS density matrix=1.00D-08 within 128 cycles.
 Requested convergence on MAX density matrix=1.00D-06.
 Requested convergence on             energy=1.00D-06.
 No special actions if energy rises.
 Fock matrices will be formed incrementally for  20 cycles.

 Cycle   1  Pass 1  IDiag  1:
 FoFJK:  IHMeth= 1 ICntrl=       0 DoSepK=F KAlg= 0 I1Cent=           0 FoldK=F
 IRaf= 990000000 NMat=       1 IRICut=       1 DoRegI=T DoRafI=F ISym2E= 1 IDoP0=0 IntGTp=1.
 FoFCou: FMM=F IPFlag=           0 FMFlag=      100000 FMFlg1=           0
         NFxFlg=           0 DoJE=F BraDBF=F KetDBF=F FulRan=T
         wScrn=  0.000000 ICntrl=         0 IOpCl=  0 I1Cent=           0 NGrid=           0
         NMat0=    1 NMatS0=      1 NMatT0=    0 NMatD0=    1 NMtDS0=    0 NMtDT0=    0
 Petite list used in FoFCou.
 E= -224.691551257147    
 DIIS: error= 2.62D-02 at cycle   1 NSaved=   1.
 NSaved= 1 IEnMin= 1 EnMin= -224.691551257147     IErMin= 1 ErrMin= 2.62D-02
 ErrMax= 2.62D-02  0.00D+00 EMaxC= 1.00D-01 BMatC= 4.47D-01 BMatP= 4.47D-01
 IDIUse=3 WtCom= 7.38D-01 WtEn= 2.62D-01
 Coeff-Com:  0.100D+01
 Coeff-En:   0.100D+01
 Coeff:      0.100D+01
 Gap=     0.297 Goal=   None    Shift=    0.000
 GapD=    0.297 DampG=1.000 DampE=0.500 DampFc=0.5000 IDamp=-1.
 Damping current iteration by 5.00D-01
 RMSDP=1.89D-03 MaxDP=1.04D-01              OVMax= 1.49D-01

 Cycle   2  Pass 1  IDiag  1:
 RMSU=  9.28D-04    CP:  9.80D-01
 E= -224.795723347142     Delta-E=       -0.104172089995 Rises=F Damp=T
 DIIS: error= 1.05D-02 at cycle   2 NSaved=   2.
 NSaved= 2 IEnMin= 2 EnMin= -224.795723347142     IErMin= 2 ErrMin= 1.05D-02
 ErrMax= 1.05D-02  0.00D+00 EMaxC= 1.00D-01 BMatC= 1.07D-01 BMatP= 4.47D-01
 IDIUse=3 WtCom= 8.95D-01 WtEn= 1.05D-01
 Coeff-Com: -0.747D+00 0.175D+01
 Coeff-En:   0.000D+00 0.100D+01
 Coeff:     -0.668D+00 0.167D+01
 Gap=     0.368 Goal=   None    Shift=    0.000
 RMSDP=1.19D-03 MaxDP=5.75D-02 DE=-1.04D-01 OVMax= 6.46D-02

 Cycle   3  Pass 1  IDiag  1:
 RMSU=  6.93D-04    CP:  9.63D-01  2.02D+00
 E= -224.889318682105     Delta-E=       -0.093595334962 Rises=F Damp=F
 DIIS: error= 5.94D-03 at cycle   3 NSaved=   3.
 NSaved= 3 IEnMin= 3 EnMin= -224.889318682105     IErMin= 3 ErrMin= 5.94D-03
 ErrMax= 5.94D-03  0.00D+00 EMaxC= 1.00D-01 BMatC= 5.71D-03 BMatP= 1.07D-01
 IDIUse=3 WtCom= 9.41D-01 WtEn= 5.94D-02
 Coeff-Com: -0.267D+00 0.493D+00 0.774D+00
 Coeff-En:   0.000D+00 0.000D+00 0.100D+01
 Coeff:     -0.252D+00 0.464D+00 0.787D+00
 Gap=     0.347 Goal=   None    Shift=    0.000
 RMSDP=1.70D-04 MaxDP=7.20D-03 DE=-9.36D-02 OVMax= 2.90D-02

 Cycle   4  Pass 1  IDiag  1:
 RMSU=  1.32D-04    CP:  9.63D-01  2.09D+00  8.74D-01
 E= -224.894183501679     Delta-E=       -0.004864819575 Rises=F Damp=F
 DIIS: error= 1.40D-03 at cycle   4 NSaved=   4.
 NSaved= 4 IEnMin= 4 EnMin= -224.894183501679     IErMin= 4 ErrMin= 1.40D-03
 ErrMax= 1.40D-03  0.00D+00 EMaxC= 1.00D-01 BMatC= 3.28D-04 BMatP= 5.71D-03
 IDIUse=3 WtCom= 9.86D-01 WtEn= 1.40D-02
 Coeff-Com: -0.619D-01 0.104D+00 0.254D+00 0.704D+00
 Coeff-En:   0.000D+00 0.000D+00 0.000D+00 0.100D+01
 Coeff:     -0.611D-01 0.103D+00 0.250D+00 0.708D+00
 Gap=     0.343 Goal=   None    Shift=    0.000
 RMSDP=4.11D-05 MaxDP=1.28D-03 DE=-4.86D-03 OVMax= 5.76D-03

 Cycle   5  Pass 1  IDiag  1:
 RMSU=  3.67D-05    CP:  9.63D-01  2.09D+00  8.98D-01  9.40D-01
 E= -224.894500217754     Delta-E=       -0.000316716074 Rises=F Damp=F
 DIIS: error= 7.28D-04 at cycle   5 NSaved=   5.
 NSaved= 5 IEnMin= 5 EnMin= -224.894500217754     IErMin= 5 ErrMin= 7.28D-04
 ErrMax= 7.28D-04  0.00D+00 EMaxC= 1.00D-01 BMatC= 2.28D-05 BMatP= 3.28D-04
 IDIUse=3 WtCom= 9.93D-01 WtEn= 7.28D-03
 Coeff-Com:  0.183D-01-0.349D-01-0.497D-01 0.805D-01 0.986D+00
 Coeff-En:   0.000D+00 0.000D+00 0.000D+00 0.000D+00 0.100D+01
 Coeff:      0.181D-01-0.346D-01-0.494D-01 0.799D-01 0.986D+00
 Gap=     0.344 Goal=   None    Shift=    0.000
 RMSDP=2.20D-05 MaxDP=9.01D-04 DE=-3.17D-04 OVMax= 4.02D-03

 Cycle   6  Pass 1  IDiag  1:
 RMSU=  1.69D-05    CP:  9.63D-01  2.09D+00  9.02D-01  1.03D+00  1.17D+00
 E= -224.894554083226     Delta-E=       -0.000053865473 Rises=F Damp=F
 DIIS: error= 2.20D-04 at cycle   6 NSaved=   6.
 NSaved= 6 IEnMin= 6 EnMin= -224.894554083226     IErMin= 6 ErrMin= 2.20D-04
 ErrMax= 2.20D-04  0.00D+00 EMaxC= 1.00D-01 BMatC= 3.80D-06 BMatP= 2.28D-05
 IDIUse=3 WtCom= 9.98D-01 WtEn= 2.20D-03
 Coeff-Com:  0.724D-02-0.123D-01-0.281D-01-0.105D+00-0.504D-01 0.119D+01
 Coeff-En:   0.000D+00 0.000D+00 0.000D+00 0.000D+00 0.000D+00 0.100D+01
 Coeff:      0.722D-02-0.123D-01-0.280D-01-0.105D+00-0.503D-01 0.119D+01
 Gap=     0.344 Goal=   None    Shift=    0.000
 RMSDP=1.16D-05 MaxDP=3.80D-04 DE=-5.39D-05 OVMax= 2.17D-03

 Cycle   7  Pass 1  IDiag  1:
 RMSU=  5.05D-06    CP:  9.64D-01  2.09D+00  9.04D-01  1.06D+00  1.36D+00
                    CP:  1.37D+00
 E= -224.894567320349     Delta-E=       -0.000013237123 Rises=F Damp=F
 DIIS: error= 1.04D-04 at cycle   7 NSaved=   7.
 NSaved= 7 IEnMin= 7 EnMin= -224.894567320349     IErMin= 7 ErrMin= 1.04D-04
 ErrMax= 1.04D-04  0.00D+00 EMaxC= 1.00D-01 BMatC= 4.71D-07 BMatP= 3.80D-06
 IDIUse=3 WtCom= 9.99D-01 WtEn= 1.04D-03
 Coeff-Com: -0.139D-02 0.280D-02 0.415D-02-0.152D-01-0.857D-01 0.435D-01
 Coeff-Com:  0.105D+01
 Coeff-En:   0.000D+00 0.000D+00 0.000D+00 0.000D+00 0.000D+00 0.000D+00
 Coeff-En:   0.100D+01
 Coeff:     -0.139D-02 0.280D-02 0.414D-02-0.152D-01-0.856D-01 0.434D-01
 Coeff:      0.105D+01
 Gap=     0.344 Goal=   None    Shift=    0.000
 RMSDP=3.55D-06 MaxDP=2.12D-04 DE=-1.32D-05 OVMax= 8.60D-04

 Cycle   8  Pass 1  IDiag  1:
 RMSU=  1.99D-06    CP:  9.64D-01  2.09D+00  9.04D-01  1.06D+00  1.40D+00
                    CP:  1.49D+00  1.31D+00
 E= -224.894569252675     Delta-E=       -0.000001932326 Rises=F Damp=F
 DIIS: error= 3.87D-05 at cycle   8 NSaved=   8.
 NSaved= 8 IEnMin= 8 EnMin= -224.894569252675     IErMin= 8 ErrMin= 3.87D-05
 ErrMax= 3.87D-05  0.00D+00 EMaxC= 1.00D-01 BMatC= 1.41D-07 BMatP= 4.71D-07
 IDIUse=1 WtCom= 1.00D+00 WtEn= 0.00D+00
 Coeff-Com: -0.202D-02 0.351D-02 0.748D-02 0.250D-01 0.113D-01-0.347D+00
 Coeff-Com:  0.123D+00 0.118D+01
 Coeff:     -0.202D-02 0.351D-02 0.748D-02 0.250D-01 0.113D-01-0.347D+00
 Coeff:      0.123D+00 0.118D+01
 Gap=     0.344 Goal=   None    Shift=    0.000
 RMSDP=2.28D-06 MaxDP=1.12D-04 DE=-1.93D-06 OVMax= 5.23D-04

 Cycle   9  Pass 1  IDiag  1:
 RMSU=  8.95D-07    CP:  9.64D-01  2.09D+00  9.04D-01  1.06D+00  1.41D+00
                    CP:  1.55D+00  1.60D+00  1.41D+00
 E= -224.894569716500     Delta-E=       -0.000000463825 Rises=F Damp=F
 DIIS: error= 4.15D-06 at cycle   9 NSaved=   9.
 NSaved= 9 IEnMin= 9 EnMin= -224.894569716500     IErMin= 9 ErrMin= 4.15D-06
 ErrMax= 4.15D-06  0.00D+00 EMaxC= 1.00D-01 BMatC= 3.84D-09 BMatP= 1.41D-07
 IDIUse=1 WtCom= 1.00D+00 WtEn= 0.00D+00
 Coeff-Com:  0.369D-03-0.664D-03-0.159D-02-0.251D-02 0.372D-02 0.471D-01
 Coeff-Com: -0.508D-01-0.217D+00 0.122D+01
 Coeff:      0.369D-03-0.664D-03-0.159D-02-0.251D-02 0.372D-02 0.471D-01
 Coeff:     -0.508D-01-0.217D+00 0.122D+01
 Gap=     0.344 Goal=   None    Shift=    0.000
 RMSDP=4.82D-07 MaxDP=1.46D-05 DE=-4.64D-07 OVMax= 7.15D-05

 Cycle  10  Pass 1  IDiag  1:
 RMSU=  2.46D-07    CP:  9.64D-01  2.09D+00  9.04D-01  1.06D+00  1.41D+00
                    CP:  1.55D+00  1.61D+00  1.53D+00  1.31D+00
 E= -224.894569728597     Delta-E=       -0.000000012097 Rises=F Damp=F
 DIIS: error= 1.80D-06 at cycle  10 NSaved=  10.
 NSaved=10 IEnMin=10 EnMin= -224.894569728597     IErMin=10 ErrMin= 1.80D-06
 ErrMax= 1.80D-06  0.00D+00 EMaxC= 1.00D-01 BMatC= 6.64D-10 BMatP= 3.84D-09
 IDIUse=1 WtCom= 1.00D+00 WtEn= 0.00D+00
 Coeff-Com:  0.247D-03-0.434D-03-0.983D-03-0.222D-02-0.206D-03 0.378D-01
 Coeff-Com: -0.169D-01-0.148D+00 0.239D+00 0.892D+00
 Coeff:      0.247D-03-0.434D-03-0.983D-03-0.222D-02-0.206D-03 0.378D-01
 Coeff:     -0.169D-01-0.148D+00 0.239D+00 0.892D+00
 Gap=     0.344 Goal=   None    Shift=    0.000
 RMSDP=1.41D-07 MaxDP=4.47D-06 DE=-1.21D-08 OVMax= 1.53D-05

 Cycle  11  Pass 1  IDiag  1:
 RMSU=  5.92D-08    CP:  9.64D-01  2.09D+00  9.04D-01  1.06D+00  1.41D+00
                    CP:  1.54D+00  1.61D+00  1.56D+00  1.41D+00  1.21D+00
 E= -224.894569729973     Delta-E=       -0.000000001376 Rises=F Damp=F
 DIIS: error= 6.72D-07 at cycle  11 NSaved=  11.
 NSaved=11 IEnMin=11 EnMin= -224.894569729973     IErMin=11 ErrMin= 6.72D-07
 ErrMax= 6.72D-07  0.00D+00 EMaxC= 1.00D-01 BMatC= 1.15D-10 BMatP= 6.64D-10
 IDIUse=1 WtCom= 1.00D+00 WtEn= 0.00D+00
 Coeff-Com: -0.578D-04 0.105D-03 0.238D-03 0.623D-03-0.103D-02-0.809D-02
 Coeff-Com:  0.104D-01 0.346D-01-0.226D+00 0.518D-02 0.118D+01
 Coeff:     -0.578D-04 0.105D-03 0.238D-03 0.623D-03-0.103D-02-0.809D-02
 Coeff:      0.104D-01 0.346D-01-0.226D+00 0.518D-02 0.118D+01
 Gap=     0.344 Goal=   None    Shift=    0.000
 RMSDP=7.70D-08 MaxDP=2.56D-06 DE=-1.38D-09 OVMax= 8.88D-06

 Cycle  12  Pass 1  IDiag  1:
 RMSU=  2.73D-08    CP:  9.64D-01  2.09D+00  9.04D-01  1.06D+00  1.41D+00
                    CP:  1.54D+00  1.61D+00  1.57D+00  1.45D+00  1.37D+00
                    CP:  1.36D+00
 E= -224.894569730263     Delta-E=       -0.000000000290 Rises=F Damp=F
 DIIS: error= 1.92D-07 at cycle  12 NSaved=  12.
 NSaved=12 IEnMin=12 EnMin= -224.894569730263     IErMin=12 ErrMin= 1.92D-07
 ErrMax= 1.92D-07  0.00D+00 EMaxC= 1.00D-01 BMatC= 7.58D-12 BMatP= 1.15D-10
 IDIUse=1 WtCom= 1.00D+00 WtEn= 0.00D+00
 Coeff-Com: -0.131D-04 0.228D-04 0.368D-04 0.150D-03 0.117D-03-0.196D-02
 Coeff-Com:  0.282D-03 0.703D-02 0.142D-01-0.678D-01-0.182D+00 0.123D+01
 Coeff:     -0.131D-04 0.228D-04 0.368D-04 0.150D-03 0.117D-03-0.196D-02
 Coeff:      0.282D-03 0.703D-02 0.142D-01-0.678D-01-0.182D+00 0.123D+01
 Gap=     0.344 Goal=   None    Shift=    0.000
 RMSDP=1.60D-08 MaxDP=7.61D-07 DE=-2.90D-10 OVMax= 2.90D-06

 Cycle  13  Pass 1  IDiag  1:
 RMSU=  6.90D-09    CP:  9.64D-01  2.09D+00  9.04D-01  1.06D+00  1.41D+00
                    CP:  1.54D+00  1.61D+00  1.57D+00  1.45D+00  1.39D+00
                    CP:  1.47D+00  1.36D+00
 E= -224.894569730288     Delta-E=       -0.000000000024 Rises=F Damp=F
 DIIS: error= 9.14D-08 at cycle  13 NSaved=  13.
 NSaved=13 IEnMin=13 EnMin= -224.894569730288     IErMin=13 ErrMin= 9.14D-08
 ErrMax= 9.14D-08  0.00D+00 EMaxC= 1.00D-01 BMatC= 1.17D-12 BMatP= 7.58D-12
 IDIUse=1 WtCom= 1.00D+00 WtEn= 0.00D+00
 Coeff-Com:  0.565D-05-0.104D-04-0.288D-04-0.597D-04 0.106D-03 0.851D-03
 Coeff-Com: -0.117D-02-0.407D-02 0.321D-01-0.151D-01-0.168D+00 0.226D+00
 Coeff-Com:  0.929D+00
 Coeff:      0.565D-05-0.104D-04-0.288D-04-0.597D-04 0.106D-03 0.851D-03
 Coeff:     -0.117D-02-0.407D-02 0.321D-01-0.151D-01-0.168D+00 0.226D+00
 Coeff:      0.929D+00
 Gap=     0.344 Goal=   None    Shift=    0.000
 RMSDP=4.88D-09 MaxDP=2.01D-07 DE=-2.45D-11 OVMax= 7.20D-07

 SCF Done:  E(RHF) =  -224.894569730     A.U. after   13 cycles
            NFock= 13  Conv=0.49D-08     -V/T= 2.0026
 KE= 2.243066387407D+02 PE=-8.493212353688D+02 EE= 2.381057202258D+02
 Leave Link  502 at Sun Sep 28 20:47:05 2025, MaxMem=  1572864000 cpu:             456.6 elap:              57.5
 (Enter /software/sse/easybuild/prefix/software/Gaussian/16.C.01-avx2-nsc1/g16/l801.exe)
 Range of M.O.s used for correlation:     1   322
 NBasis=   322 NAE=    18 NBE=    18 NFC=     0 NFV=     0
 NROrb=    322 NOA=    18 NOB=    18 NVA=   304 NVB=   304

 **** Warning!!: The largest alpha MO coefficient is  0.96623531D+02

 Leave Link  801 at Sun Sep 28 20:47:06 2025, MaxMem=  1572864000 cpu:               0.3 elap:               0.1
 (Enter /software/sse/easybuild/prefix/software/Gaussian/16.C.01-avx2-nsc1/g16/l1101.exe)
 Using compressed storage, NAtomX=     9.
 Will process     10 centers per pass.
 Leave Link 1101 at Sun Sep 28 20:47:06 2025, MaxMem=  1572864000 cpu:               1.8 elap:               0.2
 (Enter /software/sse/easybuild/prefix/software/Gaussian/16.C.01-avx2-nsc1/g16/l1102.exe)
 Symmetrizing basis deriv contribution to polar:
 IMax=3 JMax=2 DiffMx= 0.00D+00
 Leave Link 1102 at Sun Sep 28 20:47:06 2025, MaxMem=  1572864000 cpu:               0.4 elap:               0.1
 (Enter /software/sse/easybuild/prefix/software/Gaussian/16.C.01-avx2-nsc1/g16/l1110.exe)
 Forming Gx(P) for the SCF density, NAtomX=     9.
 Integral derivatives from FoFJK, PRISM(SPDF).
 Do as many integral derivatives as possible in FoFJK.
 G2DrvN: MDV=    1572862955.
 G2DrvN: will do    10 centers at a time, making    1 passes.
 Calling FoFCou, ICntrl=  3107 FMM=F I1Cent=   0 AccDes= 0.00D+00.
 FoFJK:  IHMeth= 1 ICntrl=    3107 DoSepK=F KAlg= 0 I1Cent=           0 FoldK=F
 IRaf=         0 NMat=       1 IRICut=       1 DoRegI=T DoRafI=F ISym2E= 1 IDoP0=0 IntGTp=1.
 FoFCou: FMM=F IPFlag=           0 FMFlag=      100000 FMFlg1=           0
         NFxFlg=           0 DoJE=F BraDBF=F KetDBF=F FulRan=T
         wScrn=  0.000000 ICntrl=      3107 IOpCl=  0 I1Cent=           0 NGrid=           0
         NMat0=    1 NMatS0=      1 NMatT0=    0 NMatD0=    1 NMtDS0=    0 NMtDT0=    0
 Petite list used in FoFCou.
 End of G2Drv F.D. properties file   721 does not exist.
 End of G2Drv F.D. properties file   722 does not exist.
 End of G2Drv F.D. properties file   788 does not exist.
 Leave Link 1110 at Sun Sep 28 20:47:46 2025, MaxMem=  1572864000 cpu:             315.9 elap:              39.8
 (Enter /software/sse/easybuild/prefix/software/Gaussian/16.C.01-avx2-nsc1/g16/l1002.exe)
 Minotr:  Closed shell wavefunction.
          IDoAtm=111111111
          Direct CPHF calculation.
          Differentiating once with respect to electric field.
                with respect to dipole field.
          Differentiating once with respect to nuclear coordinates.
          Using symmetry in CPHF.
          Requested convergence is 1.0D-08 RMS, and 1.0D-07 maximum.
          Secondary convergence is 1.0D-12 RMS, and 1.0D-12 maximum.
          NewPWx=T KeepS1=F KeepF1=F KeepIn=T MapXYZ=F SortEE=F KeepMc=T.
 Two-electron integrals replicated using symmetry.
          MDV=    1572864000 using IRadAn=       1.
          Solving linear equations simultaneously, MaxMat=     384.
 FoF2E skips out because all densities are zero.
 FoFJK:  IHMeth= 1 ICntrl=       0 DoSepK=F KAlg= 0 I1Cent=           0 FoldK=F
 IRaf= 990000000 NMat=      27 IRICut=      67 DoRegI=T DoRafI=T ISym2E= 2 IDoP0=3 IntGTp=3.
 FoFCou: FMM=F IPFlag=           0 FMFlag=      100000 FMFlg1=           0
         NFxFlg=           0 DoJE=F BraDBF=F KetDBF=F FulRan=T
         wScrn=  0.000000 ICntrl=         0 IOpCl=  0 I1Cent=           0 NGrid=           0
         NMat0=   27 NMatS0=     27 NMatT0=    0 NMatD0=   27 NMtDS0=    0 NMtDT0=    0
 Integrals replicated using symmetry in FoFCou.
 Raff kept on since  99.40% of shell-pairs survive, threshold=   0.20 IRatSp=99.
          There are    30 degrees of freedom in the 1st order CPHF.  IDoFFX=6 NUNeed=     3.
     27 vectors produced by pass  0 Test12= 1.82D-14 3.33D-09 XBig12= 1.88D+01 2.05D+00.
 AX will form    27 AO Fock derivatives at one time.
     27 vectors produced by pass  1 Test12= 1.82D-14 3.33D-09 XBig12= 1.44D+00 2.78D-01.
     27 vectors produced by pass  2 Test12= 1.82D-14 3.33D-09 XBig12= 3.09D-02 2.65D-02.
     27 vectors produced by pass  3 Test12= 1.82D-14 3.33D-09 XBig12= 4.87D-04 4.30D-03.
     27 vectors produced by pass  4 Test12= 1.82D-14 3.33D-09 XBig12= 5.24D-06 4.35D-04.
     27 vectors produced by pass  5 Test12= 1.82D-14 3.33D-09 XBig12= 4.12D-08 3.99D-05.
     27 vectors produced by pass  6 Test12= 1.82D-14 3.33D-09 XBig12= 3.02D-10 2.89D-06.
     17 vectors produced by pass  7 Test12= 1.82D-14 3.33D-09 XBig12= 2.23D-12 2.60D-07.
      3 vectors produced by pass  8 Test12= 1.82D-14 3.33D-09 XBig12= 1.88D-14 1.80D-08.
 InvSVY:  IOpt=1 It=  1 EMax= 8.88D-16
 Solved reduced A of dimension   209 with    30 vectors.
 FullF1:  Do perturbations      1 to       3.
 Isotropic polarizability for W=    0.000000       47.61 Bohr**3.
 End of Minotr F.D. properties file   721 does not exist.
 End of Minotr F.D. properties file   722 does not exist.
 End of Minotr F.D. properties file   788 does not exist.
 Leave Link 1002 at Sun Sep 28 20:49:42 2025, MaxMem=  1572864000 cpu:             924.4 elap:             116.2
 (Enter /software/sse/easybuild/prefix/software/Gaussian/16.C.01-avx2-nsc1/g16/l601.exe)
 Copying SCF densities to generalized density rwf, IOpCl= 0 IROHF=0.
 SCF density gives NOpUse=  2 NOpAll=  2.

 **********************************************************************

            Population analysis using the SCF Density.

 **********************************************************************

 Orbital symmetries:
 BldTbl:  Degeneracy threshold= 1.00D-02
       Occupied  (A') (A') (A') (A') (A') (A') (A') (A') (A') (A')
                 (A') (A') (A') (A") (A') (A') (A") (A")
       Virtual   (A') (A') (A') (A') (A") (A') (A') (A") (A') (A')
                 (A") (A') (A') (A') (A') (A") (A") (A') (A') (A")
                 (A') (A") (A') (A') (A') (A") (A') (A') (A') (A')
                 (A') (A') (A") (A') (A") (A") (A') (A') (A') (A")
                 (A') (A") (A') (A') (A') (A") (A') (A') (A') (A")
                 (A') (A') (A") (A') (A') (A") (A') (A") (A') (A')
                 (A') (A') (A') (A") (A') (A") (A') (A') (A") (A')
                 (A") (A') (A") (A') (A') (A") (A') (A') (A') (A')
                 (A') (A') (A") (A") (A") (A') (A') (A") (A') (A")
                 (A') (A') (A') (A') (A") (A') (A") (A") (A') (A")
                 (A') (A') (A') (A") (A') (A') (A') (A") (A") (A')
                 (A') (A") (A') (A') (A') (A") (A") (A') (A') (A')
                 (A") (A") (A') (A') (A") (A') (A") (A') (A") (A')
                 (A') (A') (A") (A') (A") (A') (A') (A') (A") (A')
                 (A") (A") (A') (A') (A") (A') (A') (A') (A") (A')
                 (A") (A') (A') (A") (A') (A') (A") (A') (A') (A")
                 (A') (A") (A') (A") (A') (A') (A") (A') (A') (A')
                 (A") (A') (A") (A') (A") (A') (A') (A") (A') (A')
                 (A") (A') (A') (A') (A') (A") (A') (A') (A") (A')
                 (A") (A") (A') (A') (A') (A') (A") (A') (A") (A")
                 (A') (A") (A") (A") (A') (A') (A") (A') (A') (A")
                 (A') (A") (A') (A") (A') (A") (A') (A') (A') (A')
                 (A') (A") (A') (A") (A') (A') (A") (A') (A') (A")
                 (A') (A") (A') (A') (A") (A') (A") (A') (A") (A')
                 (A') (A") (A') (A') (A') (A') (A") (A') (A") (A')
                 (A") (A") (A') (A') (A") (A') (A") (A') (A') (A')
                 (A") (A') (A') (A') (A") (A") (A') (A') (A") (A")
                 (A') (A") (A') (A') (A") (A') (A") (A") (A') (A")
                 (A') (A") (A') (A') (A') (A") (A') (A') (A') (A')
                 (A') (A') (A') (A') (A') (A') (A') (A') (A') (A')
                 (A') (A') (A') (A')
 The electronic state is 1-A'.
 Alpha  occ. eigenvalues --  -15.62423 -15.54993 -11.30227 -11.26575 -11.24734
 Alpha  occ. eigenvalues --   -1.33020  -1.15901  -1.00680  -0.82763  -0.79723
 Alpha  occ. eigenvalues --   -0.75790  -0.60853  -0.60393  -0.59222  -0.57197
 Alpha  occ. eigenvalues --   -0.43672  -0.39700  -0.32293
 Alpha virt. eigenvalues --    0.02122   0.03443   0.04133   0.05212   0.07237
 Alpha virt. eigenvalues --    0.08503   0.10445   0.10578   0.10924   0.11161
 Alpha virt. eigenvalues --    0.11756   0.12679   0.13091   0.14089   0.15413
 Alpha virt. eigenvalues --    0.15576   0.17525   0.18724   0.19365   0.19792
 Alpha virt. eigenvalues --    0.20559   0.22119   0.22715   0.24754   0.25676
 Alpha virt. eigenvalues --    0.27166   0.27514   0.29204   0.30884   0.31610
 Alpha virt. eigenvalues --    0.31959   0.32357   0.33221   0.33847   0.34019
 Alpha virt. eigenvalues --    0.35983   0.37207   0.38278   0.39140   0.39677
 Alpha virt. eigenvalues --    0.40853   0.42097   0.43126   0.44379   0.44914
 Alpha virt. eigenvalues --    0.46459   0.47129   0.47858   0.48989   0.49079
 Alpha virt. eigenvalues --    0.49325   0.50687   0.51142   0.51751   0.52321
 Alpha virt. eigenvalues --    0.54603   0.57688   0.58274   0.59926   0.61200
 Alpha virt. eigenvalues --    0.62570   0.65237   0.66458   0.67080   0.69055
 Alpha virt. eigenvalues --    0.70112   0.70563   0.71513   0.71962   0.74234
 Alpha virt. eigenvalues --    0.75062   0.77891   0.78983   0.79207   0.81218
 Alpha virt. eigenvalues --    0.83321   0.85498   0.85855   0.86628   0.88515
 Alpha virt. eigenvalues --    0.91819   0.92209   0.92859   0.93833   0.93955
 Alpha virt. eigenvalues --    0.94621   0.97009   0.97631   0.99099   1.00331
 Alpha virt. eigenvalues --    1.00454   1.02466   1.02864   1.03599   1.04683
 Alpha virt. eigenvalues --    1.05842   1.06249   1.07314   1.10187   1.10583
 Alpha virt. eigenvalues --    1.11580   1.13426   1.15088   1.16270   1.17291
 Alpha virt. eigenvalues --    1.18216   1.19983   1.20596   1.23402   1.23503
 Alpha virt. eigenvalues --    1.26552   1.26943   1.29370   1.30108   1.32609
 Alpha virt. eigenvalues --    1.34001   1.36311   1.39709   1.40935   1.41620
 Alpha virt. eigenvalues --    1.41726   1.46316   1.46389   1.48164   1.48778
 Alpha virt. eigenvalues --    1.49290   1.52022   1.52538   1.55961   1.56293
 Alpha virt. eigenvalues --    1.60160   1.61662   1.65674   1.67326   1.68477
 Alpha virt. eigenvalues --    1.69190   1.73865   1.74831   1.75129   1.78201
 Alpha virt. eigenvalues --    1.80814   1.82016   1.83910   1.86719   1.90126
 Alpha virt. eigenvalues --    1.94177   1.96043   1.97163   2.01496   2.01750
 Alpha virt. eigenvalues --    2.02005   2.02960   2.04852   2.07153   2.09509
 Alpha virt. eigenvalues --    2.12211   2.13539   2.14862   2.17076   2.19220
 Alpha virt. eigenvalues --    2.21589   2.24017   2.25083   2.27730   2.31495
 Alpha virt. eigenvalues --    2.33685   2.34632   2.38159   2.42620   2.44156
 Alpha virt. eigenvalues --    2.47431   2.48787   2.49208   2.53744   2.56534
 Alpha virt. eigenvalues --    2.58368   2.59359   2.67811   2.68374   2.73118
 Alpha virt. eigenvalues --    2.75240   2.79715   2.87134   2.89156   2.97314
 Alpha virt. eigenvalues --    3.00886   3.00940   3.07974   3.11510   3.20399
 Alpha virt. eigenvalues --    3.26452   3.31232   3.32478   3.34926   3.38408
 Alpha virt. eigenvalues --    3.45854   3.45909   3.49661   3.53055   3.55197
 Alpha virt. eigenvalues --    3.56482   3.61053   3.63959   3.67846   3.67858
 Alpha virt. eigenvalues --    3.69381   3.72970   3.74263   3.75311   3.76663
 Alpha virt. eigenvalues --    3.78968   3.81759   3.83647   3.87026   3.88469
 Alpha virt. eigenvalues --    3.89264   3.92223   3.97597   4.02581   4.07863
 Alpha virt. eigenvalues --    4.09151   4.09930   4.11590   4.13884   4.14583
 Alpha virt. eigenvalues --    4.16909   4.17531   4.20713   4.22349   4.24894
 Alpha virt. eigenvalues --    4.25073   4.29522   4.31927   4.34731   4.38812
 Alpha virt. eigenvalues --    4.40808   4.43747   4.46976   4.50169   4.53150
 Alpha virt. eigenvalues --    4.57878   4.61881   4.63476   4.66815   4.77139
 Alpha virt. eigenvalues --    4.78352   4.80357   4.89334   4.91180   4.92282
 Alpha virt. eigenvalues --    4.94827   4.98784   4.99200   5.04055   5.04803
 Alpha virt. eigenvalues --    5.15260   5.15919   5.16584   5.22250   5.29375
 Alpha virt. eigenvalues --    5.30245   5.34291   5.36524   5.46823   5.48188
 Alpha virt. eigenvalues --    5.50902   5.52641   5.54952   5.57569   5.62205
 Alpha virt. eigenvalues --    5.66913   5.72831   5.74047   5.75210   5.77396
 Alpha virt. eigenvalues --    5.79447   5.83082   5.85068   5.89826   5.90574
 Alpha virt. eigenvalues --    6.01283   6.05058   6.08835   6.20935   6.24141
 Alpha virt. eigenvalues --    6.26003   6.41020   6.46929   6.50350   6.56578
 Alpha virt. eigenvalues --    6.64211   6.68135   6.77531   6.84104   6.94703
 Alpha virt. eigenvalues --    7.03214   7.11348   7.47731   7.77781  15.61856
 Alpha virt. eigenvalues --   16.11965  17.41442  18.08276  18.44151
          Condensed to atoms (all electrons):
               1          2          3          4          5          6
     1  C    6.346477   0.206857   0.014724   0.048431  -0.033841  -0.242811
     2  H    0.206857   0.205433   0.030567  -0.002986   0.004669  -0.018140
     3  C    0.014724   0.030567   6.378120   0.194458  -0.009264  -0.133822
     4  H    0.048431  -0.002986   0.194458   0.214591   0.004981  -0.020289
     5  N   -0.033841   0.004669  -0.009264   0.004981   7.469084   0.222597
     6  C   -0.242811  -0.018140  -0.133822  -0.020289   0.222597   6.134114
     7  H   -0.022649  -0.002750  -0.014003  -0.002788   0.015091   0.197431
     8  N    0.286674   0.002665  -0.156567  -0.003536  -0.211572   0.470612
     9  H   -0.059340   0.010537   0.014956  -0.000194  -0.002472  -0.057590
               7          8          9
     1  C   -0.022649   0.286674  -0.059340
     2  H   -0.002750   0.002665   0.010537
     3  C   -0.014003  -0.156567   0.014956
     4  H   -0.002788  -0.003536  -0.000194
     5  N    0.015091  -0.211572  -0.002472
     6  C    0.197431   0.470612  -0.057590
     7  H    0.203413   0.019574   0.004936
     8  N    0.019574   6.129634   0.443920
     9  H    0.004936   0.443920   0.520999
 Mulliken charges:
               1
     1  C   -0.544522
     2  H    0.563147
     3  C   -0.319169
     4  H    0.567330
     5  N   -0.459273
     6  C   -0.552103
     7  H    0.601746
     8  N    0.018596
     9  H    0.124247
 Sum of Mulliken charges =  -0.00000
 Mulliken charges with hydrogens summed into heavy atoms:
               1
     1  C    0.018625
     3  C    0.248161
     5  N   -0.459273
     6  C    0.049643
     8  N    0.142844
 APT charges:
               1
     1  C    0.002263
     2  H    0.092905
     3  C    0.070193
     4  H    0.072896
     5  N   -0.470016
     6  C    0.288496
     7  H    0.083068
     8  N   -0.398123
     9  H    0.258317
 Sum of APT charges =  -0.00000
 APT charges with hydrogens summed into heavy atoms:
               1
     1  C    0.095168
     3  C    0.143090
     5  N   -0.470016
     6  C    0.371564
     8  N   -0.139806
 DipInt: DoE/N= T F RetVal/Mat= T F Init=T NMatP=  1 IDeriv=0 Min/MaxMlt=  0  4
 Entering OneElI...
 OneElI was handed  1572503890 working-precision words.
 Multipole integrals L=0 to 4 MinM= 0 MaxM= 0.
 Requested accuracy = 0.1000D-12
 ShPair: Thresh= 1.00D-13 NBox=     0 BxSize= 0.00D+00 RnKept= 8.01D+00
         NSMCal=                 5671 NSMKep=                5663
 PrmmSu-InSpLW:  IPartL=    0 NPrtUS=    1 NPrtUL=    1 DoSpLW=F IThBeg=    0 IThEnd=    0 NThAct=    1.
 PrSmSu:  IncTry=   512 NBBP=           5663 NTPThr=   100 NPartT=    1 Incr=          56 LDynOK=F GPUOK=F.
 PrsmSu:  NPrtUS=   1 ThrOK=F IAlg=2 LenDen=           0 ISkipM=0 DoSpLW=F IThBeg=    0 IThEnd=    0.
 Prism:   IPart=     0 DynPar=F LinDyn=F Incr=          56.
 PRISM was handed  1572085973 working-precision words and  5663 shell-pairs
 IPart=  0 NShTot=        5663 NBatch=          80 AvBLen=        70.8
 PrsmSu-ThDecC:  IPartSL=    0    0 NPrtUSL=    1    1 IThBeg=    0 IThEnd=    0 CPU=   -1 GPU=   -1 NThAct=    1.
 PrSmSu:  NxtVal=             57.
 Electronic moments (au):
        -36.00000000          0.41843169          1.44097572         -0.00000000
       -133.36894487       -131.71311260        -24.36479413          0.12352745
         -0.00000000         -0.00000000         -7.96438562         20.13882172
         -0.00000000        -12.86577533          1.35893254         -0.00000000
         -1.88093756          2.02418059         -0.00000000         -0.00000000
      -1244.51113770      -1105.74904382        -99.62250611          6.84148740
         -0.00000000         60.89759345         -0.00000000         -0.00000000
         -0.00000000       -374.09381332       -111.06724233       -102.12092104
         -0.00000000         -0.00000000          1.50496504
 Electronic spatial extent (au):  <R**2>=            289.4469
 DipInt: DoE/N= F T RetVal/Mat= T F Init=T NMatP=  1 IDeriv=0 Min/MaxMlt=  0  4
 Nuclear    moments (au):
         36.00000000          0.00000000          0.00000000          0.00000000
        113.67527159        112.35849040          0.00000000         -2.85908548
          0.00000000          0.00000000          7.10771397          2.85980506
          0.00000000         21.84356086          9.23410971          0.00000000
          0.00000000          0.00000000          0.00000000          0.00000000
        820.50280600        727.73204820          0.00000000        -17.41031755
          0.00000000        -89.02668415          0.00000000          0.00000000
          0.00000000        216.61296043          0.00000000          0.00000000
          0.00000000          0.00000000          0.00000000
 Total      moments (au):
         -0.00000000          0.41843169          1.44097572          0.00000000
        -19.69367328        -19.35462220        -24.36479413         -2.73555802
          0.00000000          0.00000000         -0.85667165         22.99862678
          0.00000000          8.97778553         10.59304225          0.00000000
         -1.88093756          2.02418059          0.00000000          0.00000000
       -424.00833170       -378.01699562        -99.62250611        -10.56883015
          0.00000000        -28.12909071          0.00000000          0.00000000
          0.00000000       -157.48085289       -111.06724233       -102.12092104
          0.00000000          0.00000000          1.50496504
 Charge=             -0.0000 electrons
 Dipole moment (field-independent basis, Debye):
    X=              1.0635    Y=              3.6626    Z=              0.0000  Tot=              3.8139
 Quadrupole moment (field-independent basis, Debye-Ang):
   XX=            -26.4887   YY=            -26.0326   ZZ=            -32.7715
   XY=             -3.6794   XZ=              0.0000   YZ=              0.0000
 Traceless Quadrupole moment (field-independent basis, Debye-Ang):
   XX=              1.9423   YY=              2.3983   ZZ=             -4.3406
   XY=             -3.6794   XZ=              0.0000   YZ=              0.0000
 Octapole moment (field-independent basis, Debye-Ang**2):
  XXX=             -0.6097  YYY=             16.3695  ZZZ=              0.0000  XYY=              6.3900
  XXY=              7.5397  XXZ=              0.0000  XZZ=             -1.3388  YZZ=              1.4407
  YYZ=              0.0000  XYZ=              0.0000
 Hexadecapole moment (field-independent basis, Debye-Ang**3):
 XXXX=           -159.7019 YYYY=           -142.3793 ZZZZ=            -37.5226 XXXY=             -3.9807
 XXXZ=              0.0000 YYYX=            -10.5948 YYYZ=              0.0000 ZZZX=              0.0000
 ZZZY=              0.0000 XXYY=            -59.3148 XXZZ=            -41.8332 YYZZ=            -38.4636
 XXYZ=              0.0000 YYXZ=              0.0000 ZZXY=              0.5668
 N-N= 1.620143066721D+02 E-N=-8.493212330714D+02  KE= 2.243066387407D+02
 Symmetry A'   KE= 2.166443979585D+02
 Symmetry A"   KE= 7.662240782166D+00
 SetAtRh:  ITypeU=  23 NETotI=      -1 ICharg=  0 NETot=      36.
 StAtR1:  I=    1 I1=    1 IA=  6 C=   6.0 OKShel=TTT
                                                  SSP
                                                  222
 StAtR1:  I=    2 I1=    2 IA=  1 C=   1.0 OKShel=T
                                                  S
                                                  1
 StAtR1:  I=    3 I1=    3 IA=  6 C=   6.0 OKShel=TTT
                                                  SSP
                                                  222
 StAtR1:  I=    4 I1=    4 IA=  1 C=   1.0 OKShel=T
                                                  S
                                                  1
 StAtR1:  I=    5 I1=    5 IA=  7 C=   7.0 OKShel=TTT
                                                  SSP
                                                  223
 StAtR1:  I=    6 I1=    6 IA=  6 C=   6.0 OKShel=TTT
                                                  SSP
                                                  222
 StAtR1:  I=    7 I1=    7 IA=  1 C=   1.0 OKShel=T
                                                  S
                                                  1
 StAtR1:  I=    8 I1=    8 IA=  7 C=   7.0 OKShel=TTT
                                                  SSP
                                                  223
 StAtR1:  I=    9 I1=    9 IA=  1 C=   1.0 OKShel=T
                                                  S
                                                  1
          I=    1 IA=  6 I1=    1 NAtG=23 NE=   6.000 C=   6.000 Err= 1.75D-11
          I=    2 IA=  1 I1=    2 NAtG=20 NE=   1.000 C=   1.000 Err= 2.80D-12
          I=    3 IA=  6 I1=    3 NAtG=23 NE=   6.000 C=   6.000 Err= 1.75D-11
          I=    4 IA=  1 I1=    4 NAtG=20 NE=   1.000 C=   1.000 Err= 2.80D-12
          I=    5 IA=  7 I1=    5 NAtG=22 NE=   7.000 C=   7.000 Err= 6.08D-13
          I=    6 IA=  6 I1=    6 NAtG=23 NE=   6.000 C=   6.000 Err= 1.75D-11
          I=    7 IA=  1 I1=    7 NAtG=20 NE=   1.000 C=   1.000 Err= 2.80D-12
          I=    8 IA=  7 I1=    8 NAtG=22 NE=   7.000 C=   7.000 Err= 6.08D-13
          I=    9 IA=  1 I1=    9 NAtG=20 NE=   1.000 C=   1.000 Err= 2.80D-12
 Pruned (  99, 590) grid will be used in numerical quadrature.
 IPart=  0 IRanGd=          0 ScrnBf=T ScrnGd=T RCrit=4.00D+00 DoMicB=T.
 CutRad = 1000.00    CtRdIn =    0.00    XCrit =  15.00   ICut = 0
 Pruned (  99, 590) grid will be used in numerical quadrature.
 Pruned (  99, 590) grid will be used in numerical quadrature.
 Pruned (  99, 590) grid will be used in numerical quadrature.
 IPart=  6 IRanGd=          0 ScrnBf=T ScrnGd=T RCrit=4.00D+00 DoMicB=T.
 CutRad = 1000.00    CtRdIn =    0.00    XCrit =  15.00   ICut = 0
 IPart=  2 IRanGd=          0 ScrnBf=T ScrnGd=T RCrit=4.00D+00 DoMicB=T.
 CutRad = 1000.00    CtRdIn =    0.00    XCrit =  15.00   ICut = 0
 IPart=  1 IRanGd=          0 ScrnBf=T ScrnGd=T RCrit=4.00D+00 DoMicB=T.
 Pruned (  99, 590) grid will be used in numerical quadrature.
 Pruned (  99, 590) grid will be used in numerical quadrature.
 IPart=  7 IRanGd=          0 ScrnBf=T ScrnGd=T RCrit=4.00D+00 DoMicB=T.
 Pruned (  99, 590) grid will be used in numerical quadrature.
 CutRad = 1000.00    CtRdIn =    0.00    XCrit =  15.00   ICut = 0
 IPart=  4 IRanGd=          0 ScrnBf=T ScrnGd=T RCrit=4.00D+00 DoMicB=T.
 IPart=  3 IRanGd=          0 ScrnBf=T ScrnGd=T RCrit=4.00D+00 DoMicB=T.
 CutRad = 1000.00    CtRdIn =    0.00    XCrit =  15.00   ICut = 0
 CutRad = 1000.00    CtRdIn =    0.00    XCrit =  15.00   ICut = 0
 Pruned (  99, 590) grid will be used in numerical quadrature.
 CutRad = 1000.00    CtRdIn =    0.00    XCrit =  15.00   ICut = 0
 Pruned (  99, 590) grid will be used in numerical quadrature.
 IPart=  5 IRanGd=          0 ScrnBf=T ScrnGd=T RCrit=4.00D+00 DoMicB=T.
 CutRad = 1000.00    CtRdIn =    0.00    XCrit =  15.00   ICut = 0
 IPart=  0 Atom number   1 atomic number  6 has       23114 grid points.
 IPart=  0 Atom   1 batch    1 overlaps    9 atoms,   102 shells and     9 DB shells.   NGrid=      2408
 Symmetry reduced    86 angular points to    86 for atom    1.
 Pruned (  99, 590) grid will be used in numerical quadrature.
 Pruned (  99, 590) grid will be used in numerical quadrature.
 IPart=  2 Atom number   1 atomic number  6 has       23114 grid points.
 IPart=  6 Atom number   1 atomic number  6 has       23114 grid points.
 IPart=  2 Atom   1 batch    2 overlaps    9 atoms,   103 shells and     9 DB shells.   NGrid=      2522
 IPart=  6 Atom   1 batch    3 overlaps    9 atoms,   105 shells and     9 DB shells.   NGrid=      2114
 Symmetry reduced   194 angular points to   194 for atom    1.
 Symmetry reduced   302 angular points to   302 for atom    1.
 Pruned (  99, 590) grid will be used in numerical quadrature.
 IPart=  1 Atom number   1 atomic number  6 has       23114 grid points.
 Pruned (  99, 590) grid will be used in numerical quadrature.
 IPart=  1 Atom   1 batch    4 overlaps    9 atoms,   105 shells and     9 DB shells.   NGrid=      1180
 IPart=  4 Atom number   1 atomic number  6 has       23114 grid points.
 Pruned (  99, 590) grid will be used in numerical quadrature.
 IPart=  4 Atom   1 batch    6 overlaps    9 atoms,   106 shells and     9 DB shells.   NGrid=      1180
 IPart=  3 Atom number   1 atomic number  6 has       23114 grid points.
 Symmetry reduced   590 angular points to   590 for atom    1.
 Symmetry reduced   590 angular points to   590 for atom    1.
 IPart=  3 Atom   1 batch    5 overlaps    9 atoms,   106 shells and     9 DB shells.   NGrid=      1180
 Pruned (  99, 590) grid will be used in numerical quadrature.
 Symmetry reduced   590 angular points to   590 for atom    1.
 IPart=  5 Atom number   1 atomic number  6 has       23114 grid points.
 IPart=  5 Atom   1 batch    7 overlaps    9 atoms,   106 shells and     9 DB shells.   NGrid=      1180
 Symmetry reduced   590 angular points to   590 for atom    1.
 Pruned (  99, 590) grid will be used in numerical quadrature.
 IPart=  7 Atom number   1 atomic number  6 has       23114 grid points.
 IPart=  7 Atom   1 batch    8 overlaps    9 atoms,   106 shells and     9 DB shells.   NGrid=      1180
 Symmetry reduced   590 angular points to   590 for atom    1.
 IPart=  1 Atom   1 batch    9 overlaps    9 atoms,   106 shells and     9 DB shells.   NGrid=      1180
 IPart=  4 Atom   1 batch   10 overlaps    9 atoms,   106 shells and     9 DB shells.   NGrid=      1180
 IPart=  3 Atom   1 batch   11 overlaps    9 atoms,   105 shells and     9 DB shells.   NGrid=      1180
 IPart=  5 Atom   1 batch   12 overlaps    9 atoms,   105 shells and     9 DB shells.   NGrid=       590
 IPart=  7 Atom   1 batch   13 overlaps    9 atoms,   105 shells and     9 DB shells.   NGrid=       604
 Symmetry reduced   302 angular points to   302 for atom    1.
 IPart=  5 Atom   1 batch   14 overlaps    9 atoms,   105 shells and     9 DB shells.   NGrid=       604
 Symmetry reduced   302 angular points to   302 for atom    1.
 IPart=  7 Atom   1 batch   15 overlaps    9 atoms,   100 shells and     9 DB shells.   NGrid=       604
 IPart=  6 Atom   1 batch   16 overlaps    9 atoms,    93 shells and     9 DB shells.   NGrid=       604
 IPart=  0 Atom   1 batch   17 overlaps    9 atoms,    81 shells and     9 DB shells.   NGrid=       604
 Symmetry reduced   302 angular points to   302 for atom    1.
 IPart=  5 Atom   1 batch   18 overlaps    9 atoms,    63 shells and     9 DB shells.   NGrid=       604
 IPart=  3 Atom   1 batch   19 overlaps    9 atoms,    44 shells and     9 DB shells.   NGrid=       604
 Symmetry reduced   302 angular points to   302 for atom    1.
 IPart=  4 Atom   1 batch   20 overlaps    9 atoms,    29 shells and     5 DB shells.   NGrid=       604
 Symmetry reduced   302 angular points to   302 for atom    1.
 IPart=  1 Atom   1 batch   21 overlaps    9 atoms,    14 shells and     0 DB shells.   NGrid=       604
 Symmetry reduced   302 angular points to   302 for atom    1.
 IPart=  3 Atom   1 batch   22 overlaps    9 atoms,     5 shells and     0 DB shells.   NGrid=       604
 Pruned (  99, 590) grid will be used in numerical quadrature.
 IPart=  2 Atom number   2 atomic number  1 has       23466 grid points.
 IPart=  2 Atom   2 batch    1 overlaps    9 atoms,    96 shells and     9 DB shells.   NGrid=      2838
 Symmetry reduced    86 angular points to    86 for atom    2.
 Pruned (  99, 590) grid will be used in numerical quadrature.
 IPart=  4 Atom number   2 atomic number  1 has       23466 grid points.
 IPart=  4 Atom   2 batch    2 overlaps    9 atoms,    96 shells and     9 DB shells.   NGrid=      1552
 Symmetry reduced   194 angular points to   194 for atom    2.
 Pruned (  99, 590) grid will be used in numerical quadrature.
 Pruned (  99, 590) grid will be used in numerical quadrature.
 IPart=  3 Atom number   2 atomic number  1 has       23466 grid points.
 IPart=  1 Atom number   2 atomic number  1 has       23466 grid points.
 IPart=  3 Atom   2 batch    3 overlaps    9 atoms,    98 shells and     9 DB shells.   NGrid=      2416
 IPart=  1 Atom   2 batch    4 overlaps    9 atoms,   100 shells and     9 DB shells.   NGrid=      1180
 Symmetry reduced   302 angular points to   302 for atom    2.
 Symmetry reduced   590 angular points to   590 for atom    2.
 Pruned (  99, 590) grid will be used in numerical quadrature.
 IPart=  0 Atom number   2 atomic number  1 has       23466 grid points.
 IPart=  0 Atom   2 batch    5 overlaps    9 atoms,   100 shells and     9 DB shells.   NGrid=      1180
 Symmetry reduced   590 angular points to   590 for atom    2.
 Pruned (  99, 590) grid will be used in numerical quadrature.
 IPart=  6 Atom number   2 atomic number  1 has       23466 grid points.
 IPart=  6 Atom   2 batch    6 overlaps    9 atoms,   101 shells and     9 DB shells.   NGrid=      1180
 Symmetry reduced   590 angular points to   590 for atom    2.
 Pruned (  99, 590) grid will be used in numerical quadrature.
 IPart=  5 Atom number   2 atomic number  1 has       23466 grid points.
 IPart=  5 Atom   2 batch    7 overlaps    9 atoms,   102 shells and     9 DB shells.   NGrid=      1180
 Pruned (  99, 590) grid will be used in numerical quadrature.
 Symmetry reduced   590 angular points to   590 for atom    2.
 IPart=  7 Atom number   2 atomic number  1 has       23466 grid points.
 IPart=  7 Atom   2 batch    8 overlaps    9 atoms,   102 shells and     9 DB shells.   NGrid=      1180
 Symmetry reduced   590 angular points to   590 for atom    2.
 IPart=  1 Atom   2 batch    9 overlaps    9 atoms,   103 shells and     9 DB shells.   NGrid=      1180
 IPart=  0 Atom   2 batch   10 overlaps    9 atoms,   105 shells and     9 DB shells.   NGrid=      1180
 IPart=  6 Atom   2 batch   11 overlaps    9 atoms,   106 shells and     9 DB shells.   NGrid=      1180
 IPart=  4 Atom   2 batch   12 overlaps    9 atoms,   106 shells and     9 DB shells.   NGrid=      1180
 Symmetry reduced   590 angular points to   590 for atom    2.
 IPart=  2 Atom   2 batch   13 overlaps    9 atoms,   106 shells and     9 DB shells.   NGrid=       604
 Symmetry reduced   302 angular points to   302 for atom    2.
 IPart=  3 Atom   2 batch   14 overlaps    9 atoms,   106 shells and     9 DB shells.   NGrid=       604
 IPart=  5 Atom   2 batch   15 overlaps    9 atoms,   102 shells and     9 DB shells.   NGrid=       604
 Symmetry reduced   302 angular points to   302 for atom    2.
 IPart=  0 Atom   2 batch   16 overlaps    9 atoms,    99 shells and     9 DB shells.   NGrid=       604
 IPart=  1 Atom   2 batch   17 overlaps    9 atoms,    91 shells and     9 DB shells.   NGrid=       604
 Symmetry reduced   302 angular points to   302 for atom    2.
 Symmetry reduced   302 angular points to   302 for atom    2.
 IPart=  7 Atom   2 batch   18 overlaps    9 atoms,    71 shells and     9 DB shells.   NGrid=       604
 Symmetry reduced   302 angular points to   302 for atom    2.
 IPart=  6 Atom   2 batch   19 overlaps    9 atoms,    48 shells and     9 DB shells.   NGrid=       604
 Symmetry reduced   302 angular points to   302 for atom    2.
 IPart=  6 Atom   2 batch   20 overlaps    9 atoms,    29 shells and     5 DB shells.   NGrid=       604
 IPart=  4 Atom   2 batch   21 overlaps    9 atoms,    14 shells and     0 DB shells.   NGrid=       604
 Symmetry reduced   302 angular points to   302 for atom    2.
 IPart=  7 Atom   2 batch   22 overlaps    9 atoms,     3 shells and     0 DB shells.   NGrid=       604
 Pruned (  99, 590) grid will be used in numerical quadrature.
 IPart=  6 Atom number   3 atomic number  6 has       23114 grid points.
 IPart=  6 Atom   3 batch    1 overlaps    9 atoms,   101 shells and     9 DB shells.   NGrid=      2408
 Symmetry reduced    86 angular points to    86 for atom    3.
 Pruned (  99, 590) grid will be used in numerical quadrature.
 IPart=  4 Atom number   3 atomic number  6 has       23114 grid points.
 IPart=  4 Atom   3 batch    2 overlaps    9 atoms,   105 shells and     9 DB shells.   NGrid=      2522
 Symmetry reduced   194 angular points to   194 for atom    3.
 Pruned (  99, 590) grid will be used in numerical quadrature.
 IPart=  1 Atom number   3 atomic number  6 has       23114 grid points.
 IPart=  1 Atom   3 batch    3 overlaps    9 atoms,   105 shells and     9 DB shells.   NGrid=      2114
 Symmetry reduced   302 angular points to   302 for atom    3.
 Pruned (  99, 590) grid will be used in numerical quadrature.
 IPart=  7 Atom number   3 atomic number  6 has       23114 grid points.
 IPart=  7 Atom   3 batch    4 overlaps    9 atoms,   106 shells and     9 DB shells.   NGrid=      1180
 Symmetry reduced   590 angular points to   590 for atom    3.
 Pruned (  99, 590) grid will be used in numerical quadrature.
 IPart=  0 Atom number   3 atomic number  6 has       23114 grid points.
 IPart=  0 Atom   3 batch    5 overlaps    9 atoms,   106 shells and     9 DB shells.   NGrid=      1180
 Symmetry reduced   590 angular points to   590 for atom    3.
 Pruned (  99, 590) grid will be used in numerical quadrature.
 IPart=  5 Atom number   3 atomic number  6 has       23114 grid points.
 IPart=  5 Atom   3 batch    6 overlaps    9 atoms,   106 shells and     9 DB shells.   NGrid=      1180
 Pruned (  99, 590) grid will be used in numerical quadrature.
 Symmetry reduced   590 angular points to   590 for atom    3.
 Pruned (  99, 590) grid will be used in numerical quadrature.
 IPart=  3 Atom number   3 atomic number  6 has       23114 grid points.
 IPart=  2 Atom number   3 atomic number  6 has       23114 grid points.
 IPart=  3 Atom   3 batch    7 overlaps    9 atoms,   106 shells and     9 DB shells.   NGrid=      1180
 IPart=  2 Atom   3 batch    8 overlaps    9 atoms,   106 shells and     9 DB shells.   NGrid=      1180
 Symmetry reduced   590 angular points to   590 for atom    3.
 Symmetry reduced   590 angular points to   590 for atom    3.
 IPart=  0 Atom   3 batch    9 overlaps    9 atoms,   106 shells and     9 DB shells.   NGrid=      1180
 IPart=  7 Atom   3 batch   10 overlaps    9 atoms,   106 shells and     9 DB shells.   NGrid=      1180
 IPart=  5 Atom   3 batch   11 overlaps    9 atoms,   105 shells and     9 DB shells.   NGrid=      1180
 IPart=  2 Atom   3 batch   12 overlaps    9 atoms,   105 shells and     9 DB shells.   NGrid=       590
 IPart=  3 Atom   3 batch   13 overlaps    9 atoms,   105 shells and     9 DB shells.   NGrid=       604
 Symmetry reduced   302 angular points to   302 for atom    3.
 IPart=  2 Atom   3 batch   14 overlaps    9 atoms,   105 shells and     9 DB shells.   NGrid=       604
 Symmetry reduced   302 angular points to   302 for atom    3.
 IPart=  1 Atom   3 batch   15 overlaps    9 atoms,   100 shells and     9 DB shells.   NGrid=       604
 IPart=  3 Atom   3 batch   16 overlaps    9 atoms,    93 shells and     9 DB shells.   NGrid=       604
 IPart=  6 Atom   3 batch   17 overlaps    9 atoms,    83 shells and     9 DB shells.   NGrid=       604
 Symmetry reduced   302 angular points to   302 for atom    3.
 IPart=  4 Atom   3 batch   18 overlaps    9 atoms,    64 shells and     9 DB shells.   NGrid=       604
 Symmetry reduced   302 angular points to   302 for atom    3.
 IPart=  6 Atom   3 batch   19 overlaps    9 atoms,    46 shells and     9 DB shells.   NGrid=       604
 IPart=  3 Atom   3 batch   20 overlaps    9 atoms,    29 shells and     5 DB shells.   NGrid=       604
 IPart=  6 Atom   3 batch   21 overlaps    9 atoms,    14 shells and     0 DB shells.   NGrid=       604
 IPart=  3 Atom   3 batch   22 overlaps    9 atoms,     5 shells and     0 DB shells.   NGrid=       604
 Pruned (  99, 590) grid will be used in numerical quadrature.
 IPart=  1 Atom number   4 atomic number  1 has       23466 grid points.
 IPart=  1 Atom   4 batch    1 overlaps    9 atoms,    93 shells and     9 DB shells.   NGrid=      2838
 Symmetry reduced    86 angular points to    86 for atom    4.
 Pruned (  99, 590) grid will be used in numerical quadrature.
 IPart=  6 Atom number   4 atomic number  1 has       23466 grid points.
 IPart=  6 Atom   4 batch    2 overlaps    9 atoms,    93 shells and     9 DB shells.   NGrid=      1552
 Symmetry reduced   194 angular points to   194 for atom    4.
 Pruned (  99, 590) grid will be used in numerical quadrature.
 IPart=  0 Atom number   4 atomic number  1 has       23466 grid points.
 IPart=  0 Atom   4 batch    3 overlaps    9 atoms,    96 shells and     9 DB shells.   NGrid=      2416
 Symmetry reduced   302 angular points to   302 for atom    4.
 Pruned (  99, 590) grid will be used in numerical quadrature.
 Pruned (  99, 590) grid will be used in numerical quadrature.
 IPart=  4 Atom number   4 atomic number  1 has       23466 grid points.
 IPart=  3 Atom number   4 atomic number  1 has       23466 grid points.
 IPart=  4 Atom   4 batch    4 overlaps    9 atoms,    97 shells and     9 DB shells.   NGrid=      1180
 IPart=  3 Atom   4 batch    5 overlaps    9 atoms,    98 shells and     9 DB shells.   NGrid=      1180
 Symmetry reduced   590 angular points to   590 for atom    4.
 Symmetry reduced   590 angular points to   590 for atom    4.
 Pruned (  99, 590) grid will be used in numerical quadrature.
 IPart=  5 Atom number   4 atomic number  1 has       23466 grid points.
 Pruned (  99, 590) grid will be used in numerical quadrature.
 IPart=  5 Atom   4 batch    6 overlaps    9 atoms,   100 shells and     9 DB shells.   NGrid=      1180
 IPart=  2 Atom number   4 atomic number  1 has       23466 grid points.
 IPart=  2 Atom   4 batch    7 overlaps    9 atoms,   100 shells and     9 DB shells.   NGrid=      1180
 Symmetry reduced   590 angular points to   590 for atom    4.
 Symmetry reduced   590 angular points to   590 for atom    4.
 Pruned (  99, 590) grid will be used in numerical quadrature.
 IPart=  7 Atom number   4 atomic number  1 has       23466 grid points.
 IPart=  7 Atom   4 batch    8 overlaps    9 atoms,   100 shells and     9 DB shells.   NGrid=      1180
 Symmetry reduced   590 angular points to   590 for atom    4.
 IPart=  4 Atom   4 batch    9 overlaps    9 atoms,   104 shells and     9 DB shells.   NGrid=      1180
 IPart=  3 Atom   4 batch   10 overlaps    9 atoms,   105 shells and     9 DB shells.   NGrid=      1180
 IPart=  5 Atom   4 batch   11 overlaps    9 atoms,   106 shells and     9 DB shells.   NGrid=      1180
 IPart=  2 Atom   4 batch   12 overlaps    9 atoms,   106 shells and     9 DB shells.   NGrid=      1180
 IPart=  6 Atom   4 batch   13 overlaps    9 atoms,   106 shells and     9 DB shells.   NGrid=       604
 Symmetry reduced   302 angular points to   302 for atom    4.
 IPart=  7 Atom   4 batch   14 overlaps    9 atoms,   106 shells and     9 DB shells.   NGrid=       604
 Symmetry reduced   302 angular points to   302 for atom    4.
 IPart=  6 Atom   4 batch   15 overlaps    9 atoms,   102 shells and     9 DB shells.   NGrid=       604
 IPart=  0 Atom   4 batch   16 overlaps    9 atoms,    99 shells and     9 DB shells.   NGrid=       604
 IPart=  1 Atom   4 batch   17 overlaps    9 atoms,    91 shells and     9 DB shells.   NGrid=       604
 Symmetry reduced   302 angular points to   302 for atom    4.
 IPart=  7 Atom   4 batch   18 overlaps    9 atoms,    74 shells and     9 DB shells.   NGrid=       604
 IPart=  4 Atom   4 batch   19 overlaps    9 atoms,    50 shells and     9 DB shells.   NGrid=       604
 Symmetry reduced   302 angular points to   302 for atom    4.
 IPart=  7 Atom   4 batch   20 overlaps    9 atoms,    30 shells and     5 DB shells.   NGrid=       604
 IPart=  4 Atom   4 batch   21 overlaps    9 atoms,    14 shells and     0 DB shells.   NGrid=       604
 IPart=  7 Atom   4 batch   22 overlaps    9 atoms,     3 shells and     0 DB shells.   NGrid=       604
 Pruned (  99, 590) grid will be used in numerical quadrature.
 IPart=  2 Atom number   5 atomic number  7 has       23416 grid points.
 IPart=  2 Atom   5 batch    1 overlaps    9 atoms,   100 shells and     9 DB shells.   NGrid=      2408
 Symmetry reduced    86 angular points to    86 for atom    5.
 Pruned (  99, 590) grid will be used in numerical quadrature.
 IPart=  3 Atom number   5 atomic number  7 has       23416 grid points.
 IPart=  3 Atom   5 batch    2 overlaps    9 atoms,   102 shells and     9 DB shells.   NGrid=      2522
 Symmetry reduced   194 angular points to   194 for atom    5.
 Pruned (  99, 590) grid will be used in numerical quadrature.
 IPart=  1 Atom number   5 atomic number  7 has       23416 grid points.
 IPart=  1 Atom   5 batch    3 overlaps    9 atoms,   105 shells and     9 DB shells.   NGrid=      2114
 Symmetry reduced   302 angular points to   302 for atom    5.
 Pruned (  99, 590) grid will be used in numerical quadrature.
 IPart=  4 Atom number   5 atomic number  7 has       23416 grid points.
 IPart=  4 Atom   5 batch    4 overlaps    9 atoms,   105 shells and     9 DB shells.   NGrid=      1180
 Symmetry reduced   590 angular points to   590 for atom    5.
 Pruned (  99, 590) grid will be used in numerical quadrature.
 IPart=  6 Atom number   5 atomic number  7 has       23416 grid points.
 IPart=  6 Atom   5 batch    5 overlaps    9 atoms,   105 shells and     9 DB shells.   NGrid=      1180
 Symmetry reduced   590 angular points to   590 for atom    5.
 Pruned (  99, 590) grid will be used in numerical quadrature.
 IPart=  5 Atom number   5 atomic number  7 has       23416 grid points.
 IPart=  5 Atom   5 batch    6 overlaps    9 atoms,   106 shells and     9 DB shells.   NGrid=      1180
 Pruned (  99, 590) grid will be used in numerical quadrature.
 Symmetry reduced   590 angular points to   590 for atom    5.
 IPart=  7 Atom number   5 atomic number  7 has       23416 grid points.
 IPart=  7 Atom   5 batch    7 overlaps    9 atoms,   106 shells and     9 DB shells.   NGrid=      1180
 Symmetry reduced   590 angular points to   590 for atom    5.
 Pruned (  99, 590) grid will be used in numerical quadrature.
 IPart=  0 Atom number   5 atomic number  7 has       23416 grid points.
 IPart=  0 Atom   5 batch    8 overlaps    9 atoms,   106 shells and     9 DB shells.   NGrid=      1180
 Symmetry reduced   590 angular points to   590 for atom    5.
 IPart=  4 Atom   5 batch    9 overlaps    9 atoms,   106 shells and     9 DB shells.   NGrid=      1180
 IPart=  6 Atom   5 batch   10 overlaps    9 atoms,   106 shells and     9 DB shells.   NGrid=      1180
 IPart=  5 Atom   5 batch   11 overlaps    9 atoms,   106 shells and     9 DB shells.   NGrid=      1180
 IPart=  0 Atom   5 batch   12 overlaps    9 atoms,   105 shells and     9 DB shells.   NGrid=       590
 IPart=  7 Atom   5 batch   13 overlaps    9 atoms,   105 shells and     9 DB shells.   NGrid=       604
 Symmetry reduced   302 angular points to   302 for atom    5.
 IPart=  0 Atom   5 batch   14 overlaps    9 atoms,   105 shells and     9 DB shells.   NGrid=       604
 Symmetry reduced   302 angular points to   302 for atom    5.
 IPart=  1 Atom   5 batch   15 overlaps    9 atoms,   103 shells and     9 DB shells.   NGrid=       604
 IPart=  7 Atom   5 batch   16 overlaps    9 atoms,    99 shells and     9 DB shells.   NGrid=       604
 IPart=  2 Atom   5 batch   17 overlaps    9 atoms,    97 shells and     9 DB shells.   NGrid=       604
 Symmetry reduced   302 angular points to   302 for atom    5.
 IPart=  3 Atom   5 batch   18 overlaps    9 atoms,    81 shells and     9 DB shells.   NGrid=       604
 Symmetry reduced   302 angular points to   302 for atom    5.
 IPart=  6 Atom   5 batch   19 overlaps    9 atoms,    60 shells and     9 DB shells.   NGrid=       604
 Symmetry reduced   302 angular points to   302 for atom    5.
 IPart=  4 Atom   5 batch   20 overlaps    9 atoms,    42 shells and     8 DB shells.   NGrid=       604
 Symmetry reduced   302 angular points to   302 for atom    5.
 IPart=  5 Atom   5 batch   21 overlaps    9 atoms,    26 shells and     5 DB shells.   NGrid=       604
 Symmetry reduced   302 angular points to   302 for atom    5.
 IPart=  2 Atom   5 batch   22 overlaps    9 atoms,    11 shells and     0 DB shells.   NGrid=       604
 IPart=  4 Atom   5 batch   23 overlaps    9 atoms,     4 shells and     0 DB shells.   NGrid=       302
 Pruned (  99, 590) grid will be used in numerical quadrature.
 IPart=  5 Atom number   6 atomic number  6 has       23114 grid points.
 IPart=  5 Atom   6 batch    1 overlaps    9 atoms,   101 shells and     9 DB shells.   NGrid=      2408
 Symmetry reduced    86 angular points to    86 for atom    6.
 Pruned (  99, 590) grid will be used in numerical quadrature.
 IPart=  4 Atom number   6 atomic number  6 has       23114 grid points.
 IPart=  4 Atom   6 batch    2 overlaps    9 atoms,   104 shells and     9 DB shells.   NGrid=      2522
 Symmetry reduced   194 angular points to   194 for atom    6.
 Pruned (  99, 590) grid will be used in numerical quadrature.
 IPart=  6 Atom number   6 atomic number  6 has       23114 grid points.
 IPart=  6 Atom   6 batch    3 overlaps    9 atoms,   106 shells and     9 DB shells.   NGrid=      2114
 Symmetry reduced   302 angular points to   302 for atom    6.
 Pruned (  99, 590) grid will be used in numerical quadrature.
 IPart=  2 Atom number   6 atomic number  6 has       23114 grid points.
 IPart=  2 Atom   6 batch    4 overlaps    9 atoms,   106 shells and     9 DB shells.   NGrid=      1180
 Symmetry reduced   590 angular points to   590 for atom    6.
 Pruned (  99, 590) grid will be used in numerical quadrature.
 Pruned (  99, 590) grid will be used in numerical quadrature.
 IPart=  0 Atom number   6 atomic number  6 has       23114 grid points.
 IPart=  7 Atom number   6 atomic number  6 has       23114 grid points.
 IPart=  0 Atom   6 batch    5 overlaps    9 atoms,   106 shells and     9 DB shells.   NGrid=      1180
 IPart=  7 Atom   6 batch    6 overlaps    9 atoms,   106 shells and     9 DB shells.   NGrid=      1180
 Symmetry reduced   590 angular points to   590 for atom    6.
 Symmetry reduced   590 angular points to   590 for atom    6.
 Pruned (  99, 590) grid will be used in numerical quadrature.
 IPart=  1 Atom number   6 atomic number  6 has       23114 grid points.
 IPart=  1 Atom   6 batch    7 overlaps    9 atoms,   106 shells and     9 DB shells.   NGrid=      1180
 Symmetry reduced   590 angular points to   590 for atom    6.
 Pruned (  99, 590) grid will be used in numerical quadrature.
 IPart=  3 Atom number   6 atomic number  6 has       23114 grid points.
 IPart=  3 Atom   6 batch    8 overlaps    9 atoms,   106 shells and     9 DB shells.   NGrid=      1180
 Symmetry reduced   590 angular points to   590 for atom    6.
 IPart=  2 Atom   6 batch    9 overlaps    9 atoms,   106 shells and     9 DB shells.   NGrid=      1180
 IPart=  0 Atom   6 batch   10 overlaps    9 atoms,   106 shells and     9 DB shells.   NGrid=      1180
 IPart=  3 Atom   6 batch   11 overlaps    9 atoms,   105 shells and     9 DB shells.   NGrid=      1180
 IPart=  1 Atom   6 batch   12 overlaps    9 atoms,   105 shells and     9 DB shells.   NGrid=       590
 IPart=  7 Atom   6 batch   13 overlaps    9 atoms,   105 shells and     9 DB shells.   NGrid=       604
 Symmetry reduced   302 angular points to   302 for atom    6.
 IPart=  1 Atom   6 batch   14 overlaps    9 atoms,   104 shells and     9 DB shells.   NGrid=       604
 Symmetry reduced   302 angular points to   302 for atom    6.
 IPart=  6 Atom   6 batch   15 overlaps    9 atoms,   100 shells and     9 DB shells.   NGrid=       604
 IPart=  7 Atom   6 batch   16 overlaps    9 atoms,    90 shells and     9 DB shells.   NGrid=       604
[...]
 ITU=  0
     Eigenvalues ---    0.00570   0.01498   0.02698   0.03360   0.06868
     Eigenvalues ---    0.07157   0.11311   0.12114   0.12540   0.13722
     Eigenvalues ---    0.25904   0.27301   0.39082   0.40459   0.40856
     Eigenvalues ---    0.41109   0.46570   0.49085   0.54265   0.54789
     Eigenvalues ---    0.68077
 Angle between quadratic step and forces=  90.00 degrees.
 Linear search not attempted -- first point.
 Iteration  1 RMS(Cart)=  0.00000046 RMS(Int)=  0.00000000
 ITry= 1 IFail=0 DXMaxC= 1.82D-06 DCOld= 1.00D+10 DXMaxT= 3.00D-01 DXLimC= 3.00D+00 Rises=F
 ClnCor:  largest displacement from symmetrization is 5.91D-14 for atom     2.
 Variable       Old X    -DE/DX   Delta X   Delta X   Delta X     New X
                                 (Linear)    (Quad)   (Total)
    R1        2.01499  -0.00000   0.00000  -0.00000  -0.00000   2.01499
    R2        2.54649   0.00000   0.00000   0.00000   0.00000   2.54649
    R3        2.58821   0.00000   0.00000   0.00000   0.00000   2.58821
    R4        2.01746   0.00000   0.00000   0.00000   0.00000   2.01746
    R5        2.58997   0.00000   0.00000  -0.00000  -0.00000   2.58997
    R6        2.43032  -0.00000   0.00000   0.00000   0.00000   2.43032
    R7        2.02072  -0.00000   0.00000  -0.00000  -0.00000   2.02072
    R8        2.54355  -0.00000   0.00000  -0.00000  -0.00000   2.54355
    R9        1.86913   0.00000   0.00000   0.00000   0.00000   1.86913
    A1        2.30569   0.00000   0.00000  -0.00000  -0.00000   2.30569
    A2        2.13985   0.00000   0.00000   0.00000   0.00000   2.13985
    A3        1.83764  -0.00000   0.00000  -0.00000  -0.00000   1.83764
    A4        2.23533  -0.00000   0.00000  -0.00000  -0.00000   2.23533
    A5        1.92468   0.00000   0.00000   0.00000   0.00000   1.92468
    A6        2.12318   0.00000   0.00000   0.00000   0.00000   2.12318
    A7        1.84081  -0.00000   0.00000  -0.00000  -0.00000   1.84081
    A8        2.19215   0.00000   0.00000   0.00000   0.00000   2.19215
    A9        1.95697   0.00000   0.00000   0.00000   0.00000   1.95697
   A10        2.13407  -0.00000   0.00000  -0.00000  -0.00000   2.13407
   A11        1.86468   0.00000   0.00000   0.00000   0.00000   1.86468
   A12        2.21351   0.00000   0.00000   0.00000   0.00000   2.21351
   A13        2.20500  -0.00000   0.00000  -0.00000  -0.00000   2.20500
    D1        0.00000  -0.00000   0.00000  -0.00000   0.00000   0.00000
    D2        3.14159   0.00000   0.00000  -0.00000   0.00000   3.14159
    D3        3.14159   0.00000   0.00000   0.00000   0.00000   3.14159
    D4        0.00000  -0.00000   0.00000  -0.00000   0.00000   0.00000
    D5        3.14159   0.00000   0.00000   0.00000   0.00000   3.14159
    D6        0.00000   0.00000   0.00000   0.00000   0.00000   0.00000
    D7        0.00000   0.00000   0.00000   0.00000   0.00000   0.00000
    D8        3.14159  -0.00000   0.00000   0.00000   0.00000   3.14159
    D9        0.00000   0.00000   0.00000  -0.00000   0.00000   0.00000
   D10        3.14159  -0.00000   0.00000  -0.00000   0.00000   3.14159
   D11        3.14159   0.00000   0.00000   0.00000   0.00000   3.14159
   D12        0.00000   0.00000   0.00000   0.00000   0.00000   0.00000
   D13        0.00000  -0.00000   0.00000  -0.00000   0.00000   0.00000
   D14        3.14159   0.00000   0.00000  -0.00000   0.00000   3.14159
   D15        3.14159  -0.00000   0.00000  -0.00000   0.00000   3.14159
   D16        0.00000  -0.00000   0.00000  -0.00000   0.00000   0.00000
         Item               Value     Threshold  Converged?
 Maximum Force            0.000000     0.000002     YES
 RMS     Force            0.000000     0.000001     YES
 Maximum Displacement     0.000002     0.000006     YES
 RMS     Displacement     0.000000     0.000004     YES
 Predicted change in Energy=-4.167947D-13
 Optimization completed.
    -- Stationary point found.
                           ----------------------------
                           !   Optimized Parameters   !
                           ! (Angstroms and Degrees)  !
 --------------------------                            --------------------------
 ! Name  Definition              Value          Derivative Info.                !
 --------------------------------------------------------------------------------
 ! R1    R(1,2)                  1.0663         -DE/DX =    0.0                 !
 ! R2    R(1,3)                  1.3475         -DE/DX =    0.0                 !
 ! R3    R(1,8)                  1.3696         -DE/DX =    0.0                 !
 ! R4    R(3,4)                  1.0676         -DE/DX =    0.0                 !
 ! R5    R(3,5)                  1.3706         -DE/DX =    0.0                 !
 ! R6    R(5,6)                  1.2861         -DE/DX =    0.0                 !
 ! R7    R(6,7)                  1.0693         -DE/DX =    0.0                 !
 ! R8    R(6,8)                  1.346          -DE/DX =    0.0                 !
 ! R9    R(8,9)                  0.9891         -DE/DX =    0.0                 !
 ! A1    A(2,1,3)              132.1064         -DE/DX =    0.0                 !
 ! A2    A(2,1,8)              122.6044         -DE/DX =    0.0                 !
 ! A3    A(3,1,8)              105.2892         -DE/DX =    0.0                 !
 ! A4    A(1,3,4)              128.075          -DE/DX =    0.0                 !
 ! A5    A(1,3,5)              110.276          -DE/DX =    0.0                 !
 ! A6    A(4,3,5)              121.649          -DE/DX =    0.0                 !
 ! A7    A(3,5,6)              105.4707         -DE/DX =    0.0                 !
 ! A8    A(5,6,7)              125.6009         -DE/DX =    0.0                 !
 ! A9    A(5,6,8)              112.1259         -DE/DX =    0.0                 !
 ! A10   A(7,6,8)              122.2732         -DE/DX =    0.0                 !
 ! A11   A(1,8,6)              106.8381         -DE/DX =    0.0                 !
 ! A12   A(1,8,9)              126.8248         -DE/DX =    0.0                 !
 ! A13   A(6,8,9)              126.3371         -DE/DX =    0.0                 !
 ! D1    D(2,1,3,4)              0.0            -DE/DX =    0.0                 !
 ! D2    D(2,1,3,5)            180.0            -DE/DX =    0.0                 !
 ! D3    D(8,1,3,4)            180.0            -DE/DX =    0.0                 !
 ! D4    D(8,1,3,5)              0.0            -DE/DX =    0.0                 !
 ! D5    D(2,1,8,6)            180.0            -DE/DX =    0.0                 !
 ! D6    D(2,1,8,9)              0.0            -DE/DX =    0.0                 !
 ! D7    D(3,1,8,6)              0.0            -DE/DX =    0.0                 !
 ! D8    D(3,1,8,9)            180.0            -DE/DX =    0.0                 !
 ! D9    D(1,3,5,6)              0.0            -DE/DX =    0.0                 !
 ! D10   D(4,3,5,6)            180.0            -DE/DX =    0.0                 !
 ! D11   D(3,5,6,7)            180.0            -DE/DX =    0.0                 !
 ! D12   D(3,5,6,8)              0.0            -DE/DX =    0.0                 !
 ! D13   D(5,6,8,1)              0.0            -DE/DX =    0.0                 !
 ! D14   D(5,6,8,9)            180.0            -DE/DX =    0.0                 !
 ! D15   D(7,6,8,1)            180.0            -DE/DX =    0.0                 !
 ! D16   D(7,6,8,9)              0.0            -DE/DX =    0.0                 !
 --------------------------------------------------------------------------------
 GradGradGradGradGradGradGradGradGradGradGradGradGradGradGradGradGradGrad

 Leave Link  103 at Sun Sep 28 21:13:12 2025, MaxMem=  1572864000 cpu:               1.4 elap:               0.2
 (Enter /software/sse/easybuild/prefix/software/Gaussian/16.C.01-avx2-nsc1/g16/l9999.exe)

 ----------------------------------------------------------------------

 Electric dipole moment (input orientation):
 (Debye = 10**-18 statcoulomb cm , SI units = C m)
                  (au)            (Debye)         (10**-30 SI)
   Tot        0.149162D+01      0.379131D+01      0.126464D+02
   x          0.419423D+00      0.106607D+01      0.355601D+01
   y          0.143143D+01      0.363834D+01      0.121362D+02
   z          0.000000D+00      0.000000D+00      0.000000D+00

 Dipole polarizability, Alpha (input orientation).
 (esu units = cm**3 , SI units = C**2 m**2 J**-1)
 Alpha(0;0):
               (au)            (10**-24 esu)      (10**-40 SI)
   iso        0.457153D+02      0.677432D+01      0.753744D+01
   aniso      0.194834D+02      0.288715D+01      0.321239D+01
   xx         0.528906D+02      0.783758D+01      0.872048D+01
   yx        -0.523626D+00     -0.775933D-01     -0.863342D-01
   yy         0.514898D+02      0.762999D+01      0.848951D+01
   zx         0.000000D+00      0.000000D+00      0.000000D+00
   zy         0.000000D+00      0.000000D+00      0.000000D+00
   zz         0.327657D+02      0.485538D+01      0.540233D+01

 First dipole hyperpolarizability, Beta (input orientation).
 ||, _|_  parallel and perpendicular components, (z) with respect to z axis,
 vector components x,y,z.  Values do not include the 1/n! factor of 1/2.
 (esu units = statvolt**-1 cm**4 , SI units = C**3 m**3 J**-2)
 Beta(0;0,0):
               (au)            (10**-30 esu)      (10**-50 SI)
   || (z)     0.000000D+00      0.000000D+00      0.000000D+00
   _|_(z)     0.000000D+00      0.000000D+00      0.000000D+00
   x          0.571481D+02      0.493715D+00      0.183237D+00
   y         -0.229483D+02     -0.198256D+00     -0.735807D-01
   z          0.000000D+00      0.000000D+00      0.000000D+00
   ||         0.123167D+02      0.106407D+00      0.394918D-01
   xxx       -0.276250D+02     -0.238659D+00     -0.885758D-01
   xxy        0.342589D+02      0.295970D+00      0.109846D+00
   yxy        0.106808D+02      0.922734D-01      0.342464D-01
   yyy       -0.289604D+02     -0.250196D+00     -0.928576D-01
   xxz        0.000000D+00      0.000000D+00      0.000000D+00
   yxz        0.000000D+00      0.000000D+00      0.000000D+00
   yyz        0.000000D+00      0.000000D+00      0.000000D+00
   zxz        0.359936D+02      0.310957D+00      0.115409D+00
   zyz       -0.129479D+02     -0.111860D+00     -0.415157D-01
   zzz        0.000000D+00      0.000000D+00      0.000000D+00

 ----------------------------------------------------------------------

 Dipole orientation:
     6          1.79886297         -0.52708267          1.16947419
     1          3.32642350         -0.97467134          2.40495423
     6          1.61609430         -0.47352984         -1.36988566
     1          3.04660192         -0.89268116         -2.72932888
     7         -0.77324933          0.22656885         -2.08320568
     6         -1.99037810          0.58319829         -0.01007950
     1         -3.92450247          1.14991374          0.13592231
     7         -0.54131793          0.15861092          2.03677431
     1         -1.07312176          0.31443412          3.82186926

 Electric dipole moment (dipole orientation):
 (Debye = 10**-18 statcoulomb cm , SI units = C m)
                  (au)            (Debye)         (10**-30 SI)
   Tot        0.149162D+01      0.379131D+01      0.126464D+02
   x          0.000000D+00      0.000000D+00      0.000000D+00
   y          0.000000D+00      0.000000D+00      0.000000D+00
   z          0.149162D+01      0.379131D+01      0.126464D+02

 Dipole polarizability, Alpha (dipole orientation).
 (esu units = cm**3 , SI units = C**2 m**2 J**-1)
 Alpha(0;0):
               (au)            (10**-24 esu)      (10**-40 SI)
   iso        0.457153D+02      0.677432D+01      0.753744D+01
   aniso      0.194834D+02      0.288715D+01      0.321239D+01
   xx         0.514576D+02      0.762524D+01      0.848422D+01
   yx        -0.547690D+01     -0.811594D+00     -0.903020D+00
   yy         0.343705D+02      0.509318D+01      0.566693D+01
   zx        -0.602847D-01     -0.893328D-02     -0.993961D-02
   zy         0.176640D-01      0.261753D-02      0.291239D-02
   zz         0.513179D+02      0.760453D+01      0.846118D+01

 First dipole hyperpolarizability, Beta (dipole orientation).
 ||, _|_  parallel and perpendicular components, (z) with respect to z axis,
 vector components x,y,z.  Values do not include the 1/n! factor of 1/2.
 (esu units = statvolt**-1 cm**4 , SI units = C**3 m**3 J**-2)
 Beta(0;0,0):
               (au)            (10**-30 esu)      (10**-50 SI)
   || (z)    -0.119063D+01     -0.102861D-01     -0.381760D-02
   _|_(z)    -0.396877D+00     -0.342871D-02     -0.127253D-02
   x          0.588220D+02      0.508177D+00      0.188605D+00
   y         -0.172354D+02     -0.148900D+00     -0.552628D-01
   z         -0.595316D+01     -0.514307D-01     -0.190880D-01
   ||         0.123167D+02      0.106407D+00      0.394918D-01
   xxx       -0.336891D+02     -0.291048D+00     -0.108019D+00
   xxy        0.313439D+02      0.270787D+00      0.100500D+00
   yxy        0.243118D+02      0.210035D+00      0.779524D-01
   yyy       -0.285962D+02     -0.247049D+00     -0.916898D-01
   xxz        0.942603D+01      0.814336D-01      0.302233D-01
   yxz       -0.343717D+01     -0.296945D-01     -0.110208D-01
   yyz       -0.129746D+01     -0.112090D-01     -0.416011D-02
   zxz        0.289847D+02      0.250405D+00      0.929353D-01
   zyz       -0.849276D+01     -0.733709D-01     -0.272309D-01
   zzz       -0.101130D+02     -0.873681D-01     -0.324258D-01

 ----------------------------------------------------------------------

 Test job not archived.
 1\1\NSC-N172\Freq\RHF\Aug-CC-pVTZ\C3H4N2\X_DAVVA\28-Sep-2025\0\\#P Geo
 m=AllCheck Guess=TCheck SCRF=Check Test GenChk RHF/Aug-CC-pVTZ Freq\\i
 midazole\\0,1\C,1.125932288,0.3149698811,0.\H,2.1181190214,0.705525695
 7,0.\C,0.6513645206,-0.9462454834,0.\H,1.2060746126,-1.858412136,0.\N,
 -0.7191620111,-0.9380120354,0.\C,-1.0547625369,0.3034966071,0.\H,-2.05
 65323528,0.6775331046,0.\N,0.0166140945,1.1182613082,0.\H,0.0008135436
 ,2.1072379681,0.\\Version=ES64L-G16RevC.01\State=1-A'\HF=-224.9001219\
 RMSD=2.172e-09\RMSF=1.049e-07\ZeroPoint=0.076385\Thermal=0.0799288\ETo
 t=-224.8201931\HTot=-224.8192489\GTot=-224.8498974\Dipole=0.4194227,1.
 4314337,0.\DipoleDeriv=-0.0714521,-0.2578105,0.,-0.014304,0.2757566,0.
 ,0.,0.,-0.1702062,-0.0045359,-0.0268124,0.,-0.0375181,0.0616328,0.,0.,
 0.,0.2123172,0.251342,-0.0008835,0.,-0.09423,0.155297,0.,0.,0.,-0.1524
 993,0.0203206,0.0640225,0.,0.0763636,0.0032376,0.,0.,0.,0.1772698,-0.5
 029237,-0.0631911,0.,0.044149,-0.646785,0.,0.,0.,-0.3451591,0.2630918,
 0.182503,0.,0.0824392,0.6413832,0.,0.,0.,0.064903,-0.0035193,0.0522344
 ,0.,0.044884,0.048916,0.,0.,0.,0.1584861,-0.1329277,0.0383516,0.,-0.10
 75489,-0.800496,0.,0.,0.,-0.283051,0.1806044,0.011586,0.,0.0057652,0.2
 610578,0.,0.,0.,0.3379395\Polar=52.8905914,-0.5236258,51.4897538,0.,0.
 ,32.7656973\PolarDeriv=1.3602968,2.0247277,1.9931982,0.,0.,2.9558923,1
 0.5428201,-0.3442016,5.0353996,0.,0.,6.6654391,0.,0.,0.,5.1479862,3.09
 815,0.,8.3842835,2.3556907,1.6701418,0.,0.,0.6939112,2.0661431,1.89879
 76,1.7287701,0.,0.,0.043131,0.,0.,0.,-0.5686081,-0.3830298,0.,-11.9151
 665,0.0535427,1.9766215,0.,0.,-1.3864331,-9.7855111,-2.0946211,-4.9759
 25,0.,0.,-7.1248264,0.,0.,0.,0.671776,-4.7793347,0.,2.4525367,-2.77582
 12,2.886177,0.,0.,0.4429229,-2.3024253,2.8200558,-6.8220651,0.,0.,-0.5
 140943,0.,0.,0.,0.2321166,0.3101836,0.,9.4101491,-2.255327,-5.4326698,
 0.,0.,-0.2638476,-11.0488063,-1.1273883,-4.4816803,0.,0.,-3.5445611,0.
 ,0.,0.,-0.9290117,-2.01915,0.,-4.9440386,0.9386894,-3.1555196,0.,0.,-2
 .5316118,8.2790532,0.4308004,-0.7972396,0.,0.,2.2956274,0.,0.,0.,-4.70
 92608,1.7024208,0.,-8.4436919,2.2962266,-1.5846886,0.,0.,-0.8802043,2.
 1716178,-2.0582392,1.5208414,0.,0.,0.2614503,0.,0.,0.,0.1434324,-0.049
 2799,0.,3.5671912,-3.7645876,1.7738687,0.,0.,0.9014066,-1.0895549,0.57
 92026,-0.4736859,0.,0.,1.0401988,0.,0.,0.,-0.0059671,1.6056072,0.,0.12
 84396,1.1268588,-0.1271292,0.,0.,0.0679638,1.1666634,-0.104406,9.26558
 49,0.,0.,0.8776352,0.,0.,0.,0.0175364,0.5144328,0.\HyperPolar=-27.6250
 299,34.2589011,10.6807568,-28.9604271,0.,0.,0.,35.9936359,-12.9479211,
 0.\Quadrupole=1.2021423,1.7498149,-2.9519573,-2.6299837,0.,0.\PG=CS [S
 G(C3H4N2)]\NImag=0\\0.90653698,0.17609783,0.76801141,0.,0.,0.14383196,
 -0.34603006,-0.10993443,0.,0.36412721,-0.11992438,-0.12037517,0.,0.118
 83718,0.10630369,0.,0.,-0.03159145,0.,0.,0.02445983,-0.15853728,-0.093
 73435,0.,0.00079152,-0.02508299,0.,0.66845658,-0.11830798,-0.42595507,
 0.,0.00154549,0.00829004,0.,-0.11314697,0.98091067,0.,0.,-0.08558191,0
 .,0.,0.00174163,0.,0.,0.16967801,0.01405889,-0.01094044,0.,-0.00026384
 ,0.00096059,0.,-0.14719026,0.13438697,0.,0.15470035,0.01875776,-0.0108
 6320,0.,-0.00066229,-0.00009854,0.,0.13828592,-0.30988030,0.,-0.151830
 26,0.31514628,0.,0.,0.00245182,0.,0.,-0.00343769,0.,0.,-0.03995133,0.,
 0.,0.02925505,-0.06107357,-0.09510489,0.,0.00144512,-0.00628416,0.,-0.
 28707542,-0.01066172,0.,-0.01388008,-0.00111751,0.,0.52521218,-0.00359
 894,0.00376448,0.,-0.00101337,-0.00480262,0.,-0.01275140,-0.12565300,0
 .,0.03173750,0.00905806,0.,-0.03183817,0.72415875,0.,0.,0.02053580,0.,
 0.,0.00841486,0.,0.,-0.08509645,0.,0.,-0.00369476,0.,0.,0.12361393,-0.
 11284552,0.02553623,0.,-0.00138172,0.00369378,0.,-0.05901474,0.0376131
 4,0.,-0.00849279,-0.00204568,0.,-0.15789446,0.09070809,0.,0.95801334,-
 0.03343523,-0.00942228,0.,0.00485607,-0.00787078,0.,0.11997956,-0.0193
 7629,0.,-0.00104238,0.00154481,0.,0.09142508,-0.47503186,0.,-0.1601218
 9,0.82085706,0.,0.,0.01869545,0.,0.,0.00305486,0.,0.,0.01213386,0.,0.,
 0.00535655,0.,0.,-0.09662608,0.,0.,0.18526993,-0.00027347,-0.00568925,
 0.,-0.00049161,0.00081567,0.,0.00271619,0.00152868,0.,-0.00001659,-0.0
 0003279,0.,-0.00011311,0.00433849,0.,-0.34558295,0.09678493,0.,0.36404
 824,-0.00237959,-0.00544219,0.,-0.00080531,0.00119453,0.,0.00140242,-0
 .00613658,0.,0.00171261,0.00038098,0.,0.03546217,-0.00693289,0.,0.1002
 7444,-0.10678363,0.,-0.10917697,0.10792847,0.,0.,0.00325460,0.,0.,0.00
 189581,0.,0.,0.00891497,0.,0.,0.00090527,0.,0.,-0.00265078,0.,0.,-0.04
 149567,0.,0.,0.02931166,-0.25834650,0.08631349,0.,-0.01818656,0.028271
 05,0.,-0.01159464,0.06066787,0.,-0.00006835,-0.00251697,0.,-0.00059503
 ,-0.06824579,0.,-0.29260291,-0.09222941,0.,-0.01985695,-0.02753316,0.,
 0.69314128,0.08837128,-0.19324373,0.,-0.01303941,0.01690115,0.,-0.0175
 3994,-0.10258308,0.,-0.00475380,-0.00526280,0.,0.02157165,-0.12534312,
 0.,-0.10283137,-0.19457080,0.,0.01178277,0.01539737,0.,0.00845444,1.11
 708975,0.,0.,-0.06351510,0.,0.,-0.00323228,0.,0.,0.01595211,0.,0.,0.00
 676980,0.,0.,0.02784170,0.,0.,-0.07753872,0.,0.,0.00172960,0.,0.,0.096
 47610,0.01651052,0.02745580,0.,-0.00001005,-0.00128675,0.,-0.00855195,
 0.00637452,0.,0.00115267,0.00116183,0.,-0.00602562,-0.00933641,0.,0.01
 980175,-0.02621673,0.,-0.00042975,0.00104339,0.,-0.09189035,0.00798440
 ,0.,0.06944278,-0.00558076,-0.00647425,0.,0.00021608,0.00045769,0.,0.0
 0258776,0.00038360,0.,-0.00023079,-0.00002529,0.,-0.00345245,0.0007822
 1,0.,0.00717326,-0.00934622,0.,-0.00035153,0.00039394,0.,0.00681848,-0
 .52838474,0.,-0.00718005,0.54221307,0.,0.,-0.00808118,0.,0.,-0.0013055
 7,0.,0.,0.00220910,0.,0.,0.00234529,0.,0.,0.00766178,0.,0.,-0.00885019
 ,0.,0.,-0.00186547,0.,0.,-0.00448321,0.,0.,0.01236945\\-0.00000037,-0.
 00000008,0.,0.,0.00000004,0.,0.00000025,0.00000012,0.,-0.00000011,-0.0
 0000005,0.,0.00000008,-0.00000003,0.,0.00000010,-0.00000007,0.,-0.0000
 0007,0.,0.,0.00000002,0.00000012,0.,0.00000013,-0.00000005,0.\\\@


 STEINBACH'S GUIDELINES FOR SYSTEMS PROGRAMMING:
 NEVER TEST FOR AN ERROR CONDITION YOU DON'T KNOW HOW
 TO HANDLE.
 Job cpu time:       0 days  0 hours 46 minutes 10.8 seconds.
 Elapsed time:       0 days  0 hours  5 minutes 49.1 seconds.
 File lengths (MBytes):  RWF=     85 Int=      0 D2E=      0 Chk=     16 Scr=      1
 Normal termination of Gaussian 16 at Sun Sep 28 21:13:13 2025.
