 Entering Gaussian System, Link 0=/software/sse/easybuild/prefix/software/Gaussian/16.C.01-avx2-nsc1/g16/g16.orig
 Input=1-methylimidazolium.wrap
 Output=1-methylimidazolium.log
 Initial command:
 /software/sse/easybuild/prefix/software/Gaussian/16.C.01-avx2-nsc1/g16/l1.exe "/scratch/local/Gau-3944196.inp" -scrdir="/scratch/local/"
 Entering Link 1 = /software/sse/easybuild/prefix/software/Gaussian/16.C.01-avx2-nsc1/g16/l1.exe PID=   3944197.
  
 Copyright (c) 1988-2019, Gaussian, Inc.  All Rights Reserved.
  
 This is part of the Gaussian(R) 16 program.  It is based on
 the Gaussian(R) 09 system (copyright 2009, Gaussian, Inc.),
 the Gaussian(R) 03 system (copyright 2003, Gaussian, Inc.),
 the Gaussian(R) 98 system (copyright 1998, Gaussian, Inc.),
 the Gaussian(R) 94 system (copyright 1995, Gaussian, Inc.),
 the Gaussian 92(TM) system (copyright 1992, Gaussian, Inc.),
 the Gaussian 90(TM) system (copyright 1990, Gaussian, Inc.),
 the Gaussian 88(TM) system (copyright 1988, Gaussian, Inc.),
 the Gaussian 86(TM) system (copyright 1986, Carnegie Mellon
 University), and the Gaussian 82(TM) system (copyright 1983,
 Carnegie Mellon University). Gaussian is a federally registered
 trademark of Gaussian, Inc.
  
 This software contains proprietary and confidential information,
 including trade secrets, belonging to Gaussian, Inc.
  
 This software is provided under written license and may be
 used, copied, transmitted, or stored only in accord with that
 written license.
  
 The following legend is applicable only to US Government
 contracts under FAR:
  
                    RESTRICTED RIGHTS LEGEND
  
 Use, reproduction and disclosure by the US Government is
 subject to restrictions as set forth in subparagraphs (a)
 and (c) of the Commercial Computer Software - Restricted
 Rights clause in FAR 52.227-19.
  
 Gaussian, Inc.
 340 Quinnipiac St., Bldg. 40, Wallingford CT 06492
  
  
 ---------------------------------------------------------------
 Warning -- This program may not be used in any manner that
 competes with the business of Gaussian, Inc. or will provide
 assistance to any competitor of Gaussian, Inc.  The licensee
 of this program is prohibited from giving any competitor of
 Gaussian, Inc. access to this program.  By using this program,
 the user acknowledges that Gaussian, Inc. is engaged in the
 business of creating and licensing software in the field of
 computational chemistry and represents and warrants to the
 licensee that it is not a competitor of Gaussian, Inc. and that
 it will not use this program in any manner prohibited above.
 ---------------------------------------------------------------
  

 Cite this work as:
 Gaussian 16, Revision C.01,
 M. J. Frisch, G. W. Trucks, H. B. Schlegel, G. E. Scuseria, 
 M. A. Robb, J. R. Cheeseman, G. Scalmani, V. Barone, 
 G. A. Petersson, H. Nakatsuji, X. Li, M. Caricato, A. V. Marenich, 
 J. Bloino, B. G. Janesko, R. Gomperts, B. Mennucci, H. P. Hratchian, 
 J. V. Ortiz, A. F. Izmaylov, J. L. Sonnenberg, D. Williams-Young, 
 F. Ding, F. Lipparini, F. Egidi, J. Goings, B. Peng, A. Petrone, 
 T. Henderson, D. Ranasinghe, V. G. Zakrzewski, J. Gao, N. Rega, 
 G. Zheng, W. Liang, M. Hada, M. Ehara, K. Toyota, R. Fukuda, 
 J. Hasegawa, M. Ishida, T. Nakajima, Y. Honda, O. Kitao, H. Nakai, 
 T. Vreven, K. Throssell, J. A. Montgomery, Jr., J. E. Peralta, 
 F. Ogliaro, M. J. Bearpark, J. J. Heyd, E. N. Brothers, K. N. Kudin, 
 V. N. Staroverov, T. A. Keith, R. Kobayashi, J. Normand, 
 K. Raghavachari, A. P. Rendell, J. C. Burant, S. S. Iyengar, 
 J. Tomasi, M. Cossi, J. M. Millam, M. Klene, C. Adamo, R. Cammi, 
 J. W. Ochterski, R. L. Martin, K. Morokuma, O. Farkas, 
 J. B. Foresman, and D. J. Fox, Gaussian, Inc., Wallingford CT, 2019.
 
 ******************************************
 Gaussian 16:  ES64L-G16RevC.01  3-Jul-2019
                30-Sep-2025 
 ******************************************
 %mem=12000MB
 %nprocshared=16
 Will use up to   16 processors via shared memory.
 %mem=32Gb
 %chk=1-methylimidazolium.chk
 ----------------------------------------------------------------------
 #P HF/aug-cc-pvtz Opt=tight Pop=(MK,Hirshfeld) iop(6/33=2) iop(6/42=6)
  maxdisk=128GB
 ----------------------------------------------------------------------
 1/7=10,18=20,19=15,38=1/1,3;
 2/9=110,12=2,17=6,18=5,40=1/2;
 3/5=16,6=1,7=10,11=9,25=1,30=1,71=1/1,2,3;
 4//1;
 5/5=2,38=5/2;
 6/7=2,8=2,9=2,10=2,15=8,20=1,28=1,33=2,42=6,79=1/1,2;
 7//1,2,3,16;
 1/7=10,18=20,19=15/3(2);
 2/9=110/2;
 99//99;
 2/9=110/2;
 3/5=16,6=1,7=10,11=9,25=1,30=1,71=1/1,2,3;
 4/5=5,16=3,69=1/1;
 5/5=2,38=5/2;
 7//1,2,3,16;
 1/7=10,18=20,19=15/3(-5);
 2/9=110/2;
 6/7=2,8=2,9=2,10=2,15=8,19=2,20=1,28=1,33=2,42=6,79=1/1,2;
 99/9=1/99;
 Leave Link    1 at Tue Sep 30 16:58:49 2025, MaxMem=  4294967296 cpu:               2.0 elap:               0.1
 (Enter /software/sse/easybuild/prefix/software/Gaussian/16.C.01-avx2-nsc1/g16/l101.exe)
 -------------------
 1-methylimidazolium
 -------------------
 Symbolic Z-matrix:
 Charge =  1 Multiplicity = 1
 N                     1.47847  -0.45161   0. 
 C                     1.31774   0.91388   0. 
 C                     0.        1.13686   0. 
 N                    -0.62441  -0.09468   0. 
 C                     0.2943   -1.02186   0. 
 C                    -2.07302  -0.31156   0. 
 H                     2.14322   1.588     0. 
 H                    -0.5508    2.04962   0. 
 H                     0.11509  -2.07482   0. 
 H                    -2.49884   0.13477  -0.88455 
 H                    -2.49884   0.13477   0.88455 
 H                    -2.26681  -1.37168   0. 
 H                     2.34448  -0.94054   0. 
 
 ITRead=  0  0  0  0  0  0  0  0  0  0  0  0  0
 MicOpt= -1 -1 -1 -1 -1 -1 -1 -1 -1 -1 -1 -1 -1
 NAtoms=     13 NQM=       13 NQMF=       0 NMMI=      0 NMMIF=      0
                NMic=       0 NMicF=      0.
                    Isotopes and Nuclear Properties:
 (Nuclear quadrupole moments (NQMom) in fm**2, nuclear magnetic moments (NMagM)
  in nuclear magnetons)

  Atom         1           2           3           4           5           6           7           8           9          10
 IAtWgt=          14          12          12          14          12          12           1           1           1           1
 AtmWgt=  14.0030740  12.0000000  12.0000000  14.0030740  12.0000000  12.0000000   1.0078250   1.0078250   1.0078250   1.0078250
 NucSpn=           2           0           0           2           0           0           1           1           1           1
 AtZEff=  -0.0000000  -0.0000000  -0.0000000  -0.0000000  -0.0000000  -0.0000000  -0.0000000  -0.0000000  -0.0000000  -0.0000000
 NQMom=    2.0440000   0.0000000   0.0000000   2.0440000   0.0000000   0.0000000   0.0000000   0.0000000   0.0000000   0.0000000
 NMagM=    0.4037610   0.0000000   0.0000000   0.4037610   0.0000000   0.0000000   2.7928460   2.7928460   2.7928460   2.7928460
 AtZNuc=   7.0000000   6.0000000   6.0000000   7.0000000   6.0000000   6.0000000   1.0000000   1.0000000   1.0000000   1.0000000

  Atom        11          12          13
 IAtWgt=           1           1           1
 AtmWgt=   1.0078250   1.0078250   1.0078250
 NucSpn=           1           1           1
 AtZEff=  -0.0000000  -0.0000000  -0.0000000
 NQMom=    0.0000000   0.0000000   0.0000000
 NMagM=    2.7928460   2.7928460   2.7928460
 AtZNuc=   1.0000000   1.0000000   1.0000000
 Leave Link  101 at Tue Sep 30 16:58:50 2025, MaxMem=  4294967296 cpu:               5.2 elap:               0.3
 (Enter /software/sse/easybuild/prefix/software/Gaussian/16.C.01-avx2-nsc1/g16/l103.exe)

 GradGradGradGradGradGradGradGradGradGradGradGradGradGradGradGradGradGrad
 Berny optimization.
 Initialization pass.
                           ----------------------------
                           !    Initial Parameters    !
                           ! (Angstroms and Degrees)  !
 --------------------------                            --------------------------
 ! Name  Definition              Value          Derivative Info.                !
 --------------------------------------------------------------------------------
 ! R1    R(1,2)                  1.3749         estimate D2E/DX2                !
 ! R2    R(1,5)                  1.3143         estimate D2E/DX2                !
 ! R3    R(1,13)                 0.9945         estimate D2E/DX2                !
 ! R4    R(2,3)                  1.3365         estimate D2E/DX2                !
 ! R5    R(2,7)                  1.0658         estimate D2E/DX2                !
 ! R6    R(3,4)                  1.3808         estimate D2E/DX2                !
 ! R7    R(3,8)                  1.0661         estimate D2E/DX2                !
 ! R8    R(4,5)                  1.3053         estimate D2E/DX2                !
 ! R9    R(4,6)                  1.4648         estimate D2E/DX2                !
 ! R10   R(5,9)                  1.0681         estimate D2E/DX2                !
 ! R11   R(6,10)                 1.0784         estimate D2E/DX2                !
 ! R12   R(6,11)                 1.0784         estimate D2E/DX2                !
 ! R13   R(6,12)                 1.0777         estimate D2E/DX2                !
 ! A1    A(2,1,5)              109.0003         estimate D2E/DX2                !
 ! A2    A(2,1,13)             126.1614         estimate D2E/DX2                !
 ! A3    A(5,1,13)             124.8382         estimate D2E/DX2                !
 ! A4    A(1,2,3)              106.3176         estimate D2E/DX2                !
 ! A5    A(1,2,7)              122.5231         estimate D2E/DX2                !
 ! A6    A(3,2,7)              131.1593         estimate D2E/DX2                !
 ! A7    A(2,3,4)              107.2815         estimate D2E/DX2                !
 ! A8    A(2,3,8)              130.7129         estimate D2E/DX2                !
 ! A9    A(4,3,8)              122.0056         estimate D2E/DX2                !
 ! A10   A(3,4,5)              108.3772         estimate D2E/DX2                !
 ! A11   A(3,4,6)              125.4006         estimate D2E/DX2                !
 ! A12   A(5,4,6)              126.2222         estimate D2E/DX2                !
 ! A13   A(1,5,4)              109.0234         estimate D2E/DX2                !
 ! A14   A(1,5,9)              125.3726         estimate D2E/DX2                !
 ! A15   A(4,5,9)              125.6039         estimate D2E/DX2                !
 ! A16   A(4,6,10)             109.2218         estimate D2E/DX2                !
 ! A17   A(4,6,11)             109.2218         estimate D2E/DX2                !
 ! A18   A(4,6,12)             108.8741         estimate D2E/DX2                !
 ! A19   A(10,6,11)            110.2172         estimate D2E/DX2                !
 ! A20   A(10,6,12)            109.6412         estimate D2E/DX2                !
 ! A21   A(11,6,12)            109.6412         estimate D2E/DX2                !
 ! D1    D(5,1,2,3)              0.0            estimate D2E/DX2                !
 ! D2    D(5,1,2,7)            180.0            estimate D2E/DX2                !
 ! D3    D(13,1,2,3)           180.0            estimate D2E/DX2                !
 ! D4    D(13,1,2,7)             0.0            estimate D2E/DX2                !
 ! D5    D(2,1,5,4)              0.0            estimate D2E/DX2                !
 ! D6    D(2,1,5,9)            180.0            estimate D2E/DX2                !
 ! D7    D(13,1,5,4)           180.0            estimate D2E/DX2                !
 ! D8    D(13,1,5,9)             0.0            estimate D2E/DX2                !
 ! D9    D(1,2,3,4)              0.0            estimate D2E/DX2                !
 ! D10   D(1,2,3,8)            180.0            estimate D2E/DX2                !
 ! D11   D(7,2,3,4)            180.0            estimate D2E/DX2                !
 ! D12   D(7,2,3,8)              0.0            estimate D2E/DX2                !
 ! D13   D(2,3,4,5)              0.0            estimate D2E/DX2                !
 ! D14   D(2,3,4,6)            180.0            estimate D2E/DX2                !
 ! D15   D(8,3,4,5)            180.0            estimate D2E/DX2                !
 ! D16   D(8,3,4,6)              0.0            estimate D2E/DX2                !
 ! D17   D(3,4,5,1)              0.0            estimate D2E/DX2                !
 ! D18   D(3,4,5,9)            180.0            estimate D2E/DX2                !
 ! D19   D(6,4,5,1)            180.0            estimate D2E/DX2                !
 ! D20   D(6,4,5,9)              0.0            estimate D2E/DX2                !
 ! D21   D(3,4,6,10)            60.3038         estimate D2E/DX2                !
 ! D22   D(3,4,6,11)           -60.3038         estimate D2E/DX2                !
 ! D23   D(3,4,6,12)           180.0            estimate D2E/DX2                !
 ! D24   D(5,4,6,10)          -119.6962         estimate D2E/DX2                !
 ! D25   D(5,4,6,11)           119.6962         estimate D2E/DX2                !
 ! D26   D(5,4,6,12)             0.0            estimate D2E/DX2                !
 --------------------------------------------------------------------------------
 Trust Radius=3.00D-01 FncErr=1.00D-07 GrdErr=1.00D-07 EigMax=2.50D+02 EigMin=1.00D-04
 Number of steps in this run=     70 maximum allowed number of steps=    100.
 GradGradGradGradGradGradGradGradGradGradGradGradGradGradGradGradGradGrad

 Leave Link  103 at Tue Sep 30 16:58:50 2025, MaxMem=  4294967296 cpu:               0.2 elap:               0.0
 (Enter /software/sse/easybuild/prefix/software/Gaussian/16.C.01-avx2-nsc1/g16/l202.exe)
                          Input orientation:                          
 ---------------------------------------------------------------------
 Center     Atomic      Atomic             Coordinates (Angstroms)
 Number     Number       Type             X           Y           Z
 ---------------------------------------------------------------------
      1          7           0        1.478470   -0.451610    0.000000
      2          6           0        1.317740    0.913880    0.000000
      3          6           0        0.000000    1.136860    0.000000
      4          7           0       -0.624410   -0.094680    0.000000
      5          6           0        0.294300   -1.021860    0.000000
      6          6           0       -2.073020   -0.311560    0.000000
      7          1           0        2.143220    1.588000    0.000000
      8          1           0       -0.550800    2.049620    0.000000
      9          1           0        0.115090   -2.074820    0.000000
     10          1           0       -2.498840    0.134770   -0.884550
     11          1           0       -2.498840    0.134770    0.884550
     12          1           0       -2.266810   -1.371680    0.000000
     13          1           0        2.344480   -0.940540    0.000000
 ---------------------------------------------------------------------
                    Distance matrix (angstroms):
                    1          2          3          4          5
     1  N    0.000000
     2  C    1.374917   0.000000
     3  C    2.170048   1.336473   0.000000
     4  N    2.132956   2.188410   1.380789   0.000000
     5  C    1.314323   2.189639   2.178689   1.305255   0.000000
     6  C    3.554250   3.605407   2.528899   1.464755   2.471585
     7  H    2.145204   1.065765   2.190187   3.239010   3.198417
     8  H    3.220883   2.186629   1.066073   2.145563   3.185621
     9  H    2.119815   3.221598   3.213741   2.113721   1.068102
    10  H    4.116463   3.994462   2.833869   2.085321   3.149897
    11  H    4.116463   3.994462   2.833869   2.085321   3.149897
    12  H    3.856637   4.251210   3.381006   2.080434   2.584890
    13  H    0.994498   2.119686   3.132440   3.087035   2.051792
                    6          7          8          9         10
     6  C    0.000000
     7  H    4.624393   0.000000
     8  H    2.809328   2.733283   0.000000
     9  H    2.810144   4.186832   4.177848   0.000000
    10  H    1.078407   4.943989   2.871226   3.535159   0.000000
    11  H    1.078407   4.943989   2.871226   3.535159   1.769100
    12  H    1.077687   5.311127   3.827530   2.483516   1.762288
    13  H    4.462054   2.536537   4.162175   2.501354   5.039491
                   11         12         13
    11  H    0.000000
    12  H    1.762288   0.000000
    13  H    5.039491   4.631401   0.000000
 Stoichiometry    C4H7N2(1+)
 Framework group  CS[SG(C4H5N2),X(H2)]
 Deg. of freedom    22
 Full point group                 CS      NOp   2
 Largest Abelian subgroup         CS      NOp   2
 Largest concise Abelian subgroup CS      NOp   2
                         Standard orientation:                         
 ---------------------------------------------------------------------
 Center     Atomic      Atomic             Coordinates (Angstroms)
 Number     Number       Type             X           Y           Z
 ---------------------------------------------------------------------
      1          7           0        0.668155   -1.394056    0.000000
      2          6           0       -0.705999   -1.439853    0.000000
      3          6           0       -1.124012   -0.170434    0.000000
      4          7           0        0.000000    0.631548    0.000000
      5          6           0        1.054432   -0.137778    0.000000
      6          6           0       -0.002743    2.096301    0.000000
      7          1           0       -1.248747   -2.357067    0.000000
      8          1           0       -2.109031    0.237302    0.000000
      9          1           0        2.068626    0.197264    0.000000
     10          1           0       -0.507867    2.450396    0.884550
     11          1           0       -0.507867    2.450396   -0.884550
     12          1           0        1.016343    2.446832    0.000000
     13          1           0        1.281389   -2.176979    0.000000
 ---------------------------------------------------------------------
 Rotational constants (GHZ):           9.0416830           3.5830285           2.6078943
 Leave Link  202 at Tue Sep 30 16:58:50 2025, MaxMem=  4294967296 cpu:               0.1 elap:               0.0
 (Enter /software/sse/easybuild/prefix/software/Gaussian/16.C.01-avx2-nsc1/g16/l301.exe)
 Standard basis: Aug-CC-pVTZ (5D, 7F)
 Ernie: Thresh=  0.10000D-02 Tol=  0.10000D-05 Strict=F.
 Ernie:  18 primitive shells out of 257 were deleted.
 There are   337 symmetry adapted cartesian basis functions of A'  symmetry.
 There are   168 symmetry adapted cartesian basis functions of A"  symmetry.
 There are   283 symmetry adapted basis functions of A'  symmetry.
 There are   154 symmetry adapted basis functions of A"  symmetry.
   437 basis functions,   621 primitive gaussians,   505 cartesian basis functions
    22 alpha electrons       22 beta electrons
       nuclear repulsion energy       239.3263925331 Hartrees.
 IExCor=    0 DFT=F Ex=HF Corr=None ExCW=0 ScaHFX=  1.000000
 ScaDFX=  1.000000  1.000000  1.000000  1.000000 ScalE2=  1.000000  1.000000
 IRadAn=      5 IRanWt=     -1 IRanGd=            0 ICorTp=0 IEmpDi=  4
 NAtoms=   13 NActive=   13 NUniq=   12 SFac= 1.17D+00 NAtFMM=   60 NAOKFM=F Big=F
 Integral buffers will be    131072 words long.
 Raffenetti 1 integral format.
 Two-electron integral symmetry is turned on.
 Leave Link  301 at Tue Sep 30 16:58:51 2025, MaxMem=  4294967296 cpu:               0.8 elap:               0.1
 (Enter /software/sse/easybuild/prefix/software/Gaussian/16.C.01-avx2-nsc1/g16/l302.exe)
 NPDir=0 NMtPBC=     1 NCelOv=     1 NCel=       1 NClECP=     1 NCelD=      1
         NCelK=      1 NCelE2=     1 NClLst=     1 CellRange=     0.0.
 One-electron integrals computed using PRISM.
 One-electron integral symmetry used in STVInt
 NBasis=   437 RedAO= T EigKep=  2.62D-06  NBF=   283   154
 NBsUse=   437 1.00D-06 EigRej= -1.00D+00 NBFU=   283   154
 Leave Link  302 at Tue Sep 30 16:58:51 2025, MaxMem=  4294967296 cpu:               3.5 elap:               0.2
 (Enter /software/sse/easybuild/prefix/software/Gaussian/16.C.01-avx2-nsc1/g16/l303.exe)
 DipDrv:  MaxL=1.
 Leave Link  303 at Tue Sep 30 16:58:52 2025, MaxMem=  4294967296 cpu:               0.7 elap:               0.1
 (Enter /software/sse/easybuild/prefix/software/Gaussian/16.C.01-avx2-nsc1/g16/l401.exe)
 ExpMin= 2.53D-02 ExpMax= 1.14D+04 ExpMxC= 3.89D+02 IAcc=3 IRadAn=         5 AccDes= 0.00D+00
 Harris functional with IExCor=  205 and IRadAn=       5 diagonalized for initial guess.
 HarFok:  IExCor=  205 AccDes= 0.00D+00 IRadAn=         5 IDoV= 1 UseB2=F ITyADJ=14
 ICtDFT=  3500011 ScaDFX=  1.000000  1.000000  1.000000  1.000000
 FoFCou: FMM=F IPFlag=           0 FMFlag=      100000 FMFlg1=           0
         NFxFlg=           0 DoJE=T BraDBF=F KetDBF=T FulRan=T
         wScrn=  0.000000 ICntrl=       500 IOpCl=  0 I1Cent=   200000004 NGrid=           0
         NMat0=    1 NMatS0=      1 NMatT0=    0 NMatD0=    1 NMtDS0=    0 NMtDT0=    0
 Petite list used in FoFCou.
 Harris En= -264.705639910016    
 JPrj=0 DoOrth=F DoCkMO=F.
 Initial guess orbital symmetries:
       Occupied  (A') (A') (A') (A') (A') (A') (A') (A') (A') (A')
                 (A') (A') (A') (A') (A") (A') (A') (A') (A") (A')
                 (A") (A")
       Virtual   (A") (A") (A') (A') (A') (A') (A') (A") (A') (A')
                 (A") (A') (A") (A') (A') (A') (A') (A') (A') (A')
                 (A") (A") (A") (A') (A') (A') (A') (A') (A') (A")
                 (A') (A") (A') (A') (A') (A") (A') (A') (A') (A')
                 (A") (A') (A') (A") (A') (A") (A') (A") (A') (A")
                 (A') (A') (A") (A') (A') (A') (A') (A") (A') (A')
                 (A") (A') (A") (A') (A") (A') (A") (A') (A") (A')
                 (A") (A') (A') (A') (A') (A') (A") (A') (A') (A')
                 (A') (A") (A') (A') (A") (A') (A') (A') (A") (A')
                 (A") (A') (A") (A') (A") (A') (A") (A') (A") (A')
                 (A") (A') (A') (A') (A') (A") (A') (A') (A") (A')
                 (A') (A") (A') (A") (A') (A') (A") (A') (A") (A')
                 (A") (A') (A') (A") (A") (A') (A') (A") (A') (A")
                 (A') (A') (A') (A') (A") (A') (A") (A') (A") (A')
                 (A') (A") (A") (A') (A") (A') (A') (A") (A') (A")
                 (A') (A') (A") (A') (A') (A") (A') (A') (A") (A')
                 (A") (A') (A") (A') (A") (A') (A') (A") (A') (A')
                 (A") (A') (A') (A") (A') (A') (A") (A") (A') (A')
                 (A') (A") (A') (A') (A") (A') (A") (A") (A') (A')
                 (A") (A') (A") (A') (A') (A') (A") (A') (A") (A")
                 (A') (A') (A') (A") (A') (A') (A') (A") (A') (A')
                 (A") (A') (A") (A') (A') (A") (A') (A") (A") (A')
                 (A') (A') (A") (A') (A") (A') (A') (A') (A") (A')
                 (A') (A") (A') (A') (A") (A') (A") (A') (A') (A")
                 (A') (A") (A') (A') (A") (A') (A') (A') (A") (A')
                 (A") (A') (A') (A') (A") (A') (A') (A') (A") (A")
                 (A') (A') (A") (A') (A") (A") (A') (A') (A') (A")
                 (A') (A') (A") (A") (A') (A") (A") (A') (A") (A')
                 (A') (A") (A') (A') (A") (A') (A") (A") (A') (A')
                 (A') (A") (A') (A") (A') (A') (A") (A') (A") (A')
                 (A") (A') (A") (A") (A') (A") (A') (A') (A') (A")
                 (A') (A') (A') (A') (A") (A') (A") (A') (A') (A")
                 (A") (A') (A') (A") (A") (A') (A') (A") (A') (A')
                 (A') (A") (A') (A') (A") (A') (A') (A") (A') (A')
                 (A') (A") (A") (A') (A') (A") (A') (A") (A') (A")
                 (A') (A') (A") (A') (A") (A') (A') (A") (A') (A')
                 (A") (A') (A") (A') (A") (A') (A') (A") (A") (A')
                 (A") (A') (A") (A') (A") (A") (A') (A') (A") (A')
                 (A") (A') (A") (A') (A') (A") (A') (A') (A') (A")
                 (A') (A") (A') (A') (A') (A') (A') (A") (A') (A')
                 (A') (A') (A') (A') (A') (A') (A') (A') (A') (A')
                 (A') (A') (A') (A') (A')
 The electronic state of the initial guess is 1-A'.
 Leave Link  401 at Tue Sep 30 16:58:53 2025, MaxMem=  4294967296 cpu:               7.7 elap:               0.5
 (Enter /software/sse/easybuild/prefix/software/Gaussian/16.C.01-avx2-nsc1/g16/l502.exe)
 Integral symmetry usage will be decided dynamically.
 Closed shell SCF:
 Using DIIS extrapolation, IDIIS=  1040.
 NGot=  4294967296 LenX=  4294443591 LenY=  4294188061
 Requested convergence on RMS density matrix=1.00D-08 within 128 cycles.
 Requested convergence on MAX density matrix=1.00D-06.
 Requested convergence on             energy=1.00D-06.
 No special actions if energy rises.
 Fock matrices will be formed incrementally for  20 cycles.

 Cycle   1  Pass 1  IDiag  1:
 FoFJK:  IHMeth= 1 ICntrl=       0 DoSepK=F KAlg= 0 I1Cent=           0 FoldK=F
 IRaf= 990000000 NMat=       1 IRICut=       1 DoRegI=T DoRafI=F ISym2E= 1 IDoP0=0 IntGTp=1.
 FoFCou: FMM=F IPFlag=           0 FMFlag=      100000 FMFlg1=           0
         NFxFlg=           0 DoJE=F BraDBF=F KetDBF=F FulRan=T
         wScrn=  0.000000 ICntrl=         0 IOpCl=  0 I1Cent=           0 NGrid=           0
         NMat0=    1 NMatS0=      1 NMatT0=    0 NMatD0=    1 NMtDS0=    0 NMtDT0=    0
 Petite list used in FoFCou.
 E= -264.118483484498    
 DIIS: error= 2.42D-02 at cycle   1 NSaved=   1.
 NSaved= 1 IEnMin= 1 EnMin= -264.118483484498     IErMin= 1 ErrMin= 2.42D-02
 ErrMax= 2.42D-02  0.00D+00 EMaxC= 1.00D-01 BMatC= 5.14D-01 BMatP= 5.14D-01
 IDIUse=3 WtCom= 7.58D-01 WtEn= 2.42D-01
 Coeff-Com:  0.100D+01
 Coeff-En:   0.100D+01
 Coeff:      0.100D+01
 Gap=     0.447 Goal=   None    Shift=    0.000
 GapD=    0.447 DampG=2.000 DampE=0.500 DampFc=1.0000 IDamp=-1.
 RMSDP=1.82D-03 MaxDP=1.50D-01              OVMax= 1.06D-01

 Cycle   2  Pass 1  IDiag  1:
 RMSU=  1.79D-03    CP:  9.60D-01
 E= -264.311726374383     Delta-E=       -0.193242889885 Rises=F Damp=F
 DIIS: error= 6.46D-03 at cycle   2 NSaved=   2.
 NSaved= 2 IEnMin= 2 EnMin= -264.311726374383     IErMin= 2 ErrMin= 6.46D-03
 ErrMax= 6.46D-03  0.00D+00 EMaxC= 1.00D-01 BMatC= 2.46D-02 BMatP= 5.14D-01
 IDIUse=3 WtCom= 9.35D-01 WtEn= 6.46D-02
 Coeff-Com:  0.589D-01 0.941D+00
 Coeff-En:   0.000D+00 0.100D+01
 Coeff:      0.551D-01 0.945D+00
 Gap=     0.484 Goal=   None    Shift=    0.000
 RMSDP=4.57D-04 MaxDP=2.31D-02 DE=-1.93D-01 OVMax= 5.26D-02

 Cycle   3  Pass 1  IDiag  1:
 RMSU=  4.39D-04    CP:  9.71D-01  1.05D+00
 E= -264.328761848837     Delta-E=       -0.017035474454 Rises=F Damp=F
 DIIS: error= 2.26D-03 at cycle   3 NSaved=   3.
 NSaved= 3 IEnMin= 3 EnMin= -264.328761848837     IErMin= 3 ErrMin= 2.26D-03
 ErrMax= 2.26D-03  0.00D+00 EMaxC= 1.00D-01 BMatC= 3.50D-03 BMatP= 2.46D-02
 IDIUse=3 WtCom= 9.77D-01 WtEn= 2.26D-02
 Coeff-Com: -0.223D-01 0.240D+00 0.783D+00
 Coeff-En:   0.000D+00 0.000D+00 0.100D+01
 Coeff:     -0.218D-01 0.234D+00 0.788D+00
 Gap=     0.454 Goal=   None    Shift=    0.000
 RMSDP=1.20D-04 MaxDP=4.60D-03 DE=-1.70D-02 OVMax= 1.70D-02

 Cycle   4  Pass 1  IDiag  1:
 RMSU=  1.01D-04    CP:  9.70D-01  1.08D+00  8.86D-01
 E= -264.331846773927     Delta-E=       -0.003084925089 Rises=F Damp=F
 DIIS: error= 9.47D-04 at cycle   4 NSaved=   4.
 NSaved= 4 IEnMin= 4 EnMin= -264.331846773927     IErMin= 4 ErrMin= 9.47D-04
 ErrMax= 9.47D-04  0.00D+00 EMaxC= 1.00D-01 BMatC= 1.44D-04 BMatP= 3.50D-03
 IDIUse=3 WtCom= 9.91D-01 WtEn= 9.47D-03
 Coeff-Com: -0.626D-02 0.279D-01 0.178D+00 0.801D+00
 Coeff-En:   0.000D+00 0.000D+00 0.000D+00 0.100D+01
 Coeff:     -0.620D-02 0.276D-01 0.176D+00 0.803D+00
 Gap=     0.452 Goal=   None    Shift=    0.000
 RMSDP=2.98D-05 MaxDP=1.54D-03 DE=-3.08D-03 OVMax= 6.71D-03

 Cycle   5  Pass 1  IDiag  1:
 RMSU=  2.67D-05    CP:  9.70D-01  1.08D+00  9.16D-01  9.92D-01
 E= -264.332038263614     Delta-E=       -0.000191489688 Rises=F Damp=F
 DIIS: error= 4.16D-04 at cycle   5 NSaved=   5.
 NSaved= 5 IEnMin= 5 EnMin= -264.332038263614     IErMin= 5 ErrMin= 4.16D-04
 ErrMax= 4.16D-04  0.00D+00 EMaxC= 1.00D-01 BMatC= 2.05D-05 BMatP= 1.44D-04
 IDIUse=3 WtCom= 9.96D-01 WtEn= 4.16D-03
 Coeff-Com:  0.222D-02-0.278D-01-0.875D-01 0.676D-01 0.105D+01
 Coeff-En:   0.000D+00 0.000D+00 0.000D+00 0.000D+00 0.100D+01
 Coeff:      0.221D-02-0.276D-01-0.871D-01 0.673D-01 0.105D+01
 Gap=     0.453 Goal=   None    Shift=    0.000
 RMSDP=1.70D-05 MaxDP=6.99D-04 DE=-1.91D-04 OVMax= 3.57D-03

 Cycle   6  Pass 1  IDiag  1:
 RMSU=  1.05D-05    CP:  9.71D-01  1.08D+00  9.29D-01  1.08D+00  1.23D+00
 E= -264.332089151283     Delta-E=       -0.000050887669 Rises=F Damp=F
 DIIS: error= 1.85D-04 at cycle   6 NSaved=   6.
 NSaved= 6 IEnMin= 6 EnMin= -264.332089151283     IErMin= 6 ErrMin= 1.85D-04
 ErrMax= 1.85D-04  0.00D+00 EMaxC= 1.00D-01 BMatC= 3.43D-06 BMatP= 2.05D-05
 IDIUse=3 WtCom= 9.98D-01 WtEn= 1.85D-03
 Coeff-Com:  0.115D-02-0.870D-02-0.365D-01-0.780D-01 0.114D+00 0.101D+01
 Coeff-En:   0.000D+00 0.000D+00 0.000D+00 0.000D+00 0.000D+00 0.100D+01
 Coeff:      0.114D-02-0.868D-02-0.364D-01-0.779D-01 0.114D+00 0.101D+01
 Gap=     0.452 Goal=   None    Shift=    0.000
 RMSDP=7.09D-06 MaxDP=3.69D-04 DE=-5.09D-05 OVMax= 1.85D-03

 Cycle   7  Pass 1  IDiag  1:
 RMSU=  4.12D-06    CP:  9.71D-01  1.08D+00  9.33D-01  1.11D+00  1.37D+00
                    CP:  1.28D+00
 E= -264.332099783748     Delta-E=       -0.000010632465 Rises=F Damp=F
 DIIS: error= 8.09D-05 at cycle   7 NSaved=   7.
 NSaved= 7 IEnMin= 7 EnMin= -264.332099783748     IErMin= 7 ErrMin= 8.09D-05
 ErrMax= 8.09D-05  0.00D+00 EMaxC= 1.00D-01 BMatC= 6.76D-07 BMatP= 3.43D-06
 IDIUse=1 WtCom= 1.00D+00 WtEn= 0.00D+00
 Coeff-Com: -0.284D-03 0.461D-02 0.125D-01-0.135D-01-0.207D+00 0.124D+00
 Coeff-Com:  0.108D+01
 Coeff:     -0.284D-03 0.461D-02 0.125D-01-0.135D-01-0.207D+00 0.124D+00
 Coeff:      0.108D+01
 Gap=     0.453 Goal=   None    Shift=    0.000
 RMSDP=3.67D-06 MaxDP=2.66D-04 DE=-1.06D-05 OVMax= 1.28D-03

 Cycle   8  Pass 1  IDiag  1:
 RMSU=  1.87D-06    CP:  9.71D-01  1.08D+00  9.34D-01  1.12D+00  1.42D+00
                    CP:  1.49D+00  1.38D+00
 E= -264.332102287360     Delta-E=       -0.000002503612 Rises=F Damp=F
 DIIS: error= 2.18D-05 at cycle   8 NSaved=   8.
 NSaved= 8 IEnMin= 8 EnMin= -264.332102287360     IErMin= 8 ErrMin= 2.18D-05
 ErrMax= 2.18D-05  0.00D+00 EMaxC= 1.00D-01 BMatC= 9.76D-08 BMatP= 6.76D-07
 IDIUse=1 WtCom= 1.00D+00 WtEn= 0.00D+00
 Coeff-Com: -0.195D-03 0.176D-02 0.610D-02 0.170D-01-0.326D-01-0.199D+00
 Coeff-Com:  0.429D-01 0.116D+01
 Coeff:     -0.195D-03 0.176D-02 0.610D-02 0.170D-01-0.326D-01-0.199D+00
 Coeff:      0.429D-01 0.116D+01
 Gap=     0.453 Goal=   None    Shift=    0.000
 RMSDP=1.68D-06 MaxDP=9.63D-05 DE=-2.50D-06 OVMax= 4.62D-04

 Cycle   9  Pass 1  IDiag  1:
 RMSU=  6.19D-07    CP:  9.71D-01  1.08D+00  9.34D-01  1.12D+00  1.44D+00
                    CP:  1.58D+00  1.62D+00  1.23D+00
 E= -264.332102598553     Delta-E=       -0.000000311193 Rises=F Damp=F
 DIIS: error= 3.15D-06 at cycle   9 NSaved=   9.
 NSaved= 9 IEnMin= 9 EnMin= -264.332102598553     IErMin= 9 ErrMin= 3.15D-06
 ErrMax= 3.15D-06  0.00D+00 EMaxC= 1.00D-01 BMatC= 3.04D-09 BMatP= 9.76D-08
 IDIUse=1 WtCom= 1.00D+00 WtEn= 0.00D+00
 Coeff-Com: -0.192D-05-0.968D-04-0.341D-03 0.222D-02 0.921D-02-0.169D-01
 Coeff-Com: -0.447D-01 0.556D-01 0.995D+00
 Coeff:     -0.192D-05-0.968D-04-0.341D-03 0.222D-02 0.921D-02-0.169D-01
 Coeff:     -0.447D-01 0.556D-01 0.995D+00
 Gap=     0.453 Goal=   None    Shift=    0.000
 RMSDP=2.23D-07 MaxDP=1.27D-05 DE=-3.11D-07 OVMax= 3.48D-05

 Cycle  10  Pass 1  IDiag  1:
 RMSU=  1.48D-07    CP:  9.71D-01  1.08D+00  9.34D-01  1.12D+00  1.44D+00
                    CP:  1.58D+00  1.64D+00  1.28D+00  1.13D+00
 E= -264.332102604498     Delta-E=       -0.000000005945 Rises=F Damp=F
 DIIS: error= 1.22D-06 at cycle  10 NSaved=  10.
 NSaved=10 IEnMin=10 EnMin= -264.332102604498     IErMin=10 ErrMin= 1.22D-06
 ErrMax= 1.22D-06  0.00D+00 EMaxC= 1.00D-01 BMatC= 4.28D-10 BMatP= 3.04D-09
 IDIUse=1 WtCom= 1.00D+00 WtEn= 0.00D+00
 Coeff-Com:  0.194D-04-0.193D-03-0.683D-03-0.161D-02 0.427D-02 0.200D-01
 Coeff-Com: -0.714D-02-0.132D+00 0.115D+00 0.100D+01
 Coeff:      0.194D-04-0.193D-03-0.683D-03-0.161D-02 0.427D-02 0.200D-01
 Coeff:     -0.714D-02-0.132D+00 0.115D+00 0.100D+01
 Gap=     0.453 Goal=   None    Shift=    0.000
 RMSDP=7.38D-08 MaxDP=3.05D-06 DE=-5.94D-09 OVMax= 8.76D-06

 Cycle  11  Pass 1  IDiag  1:
 RMSU=  4.96D-08    CP:  9.71D-01  1.08D+00  9.34D-01  1.12D+00  1.44D+00
                    CP:  1.58D+00  1.64D+00  1.29D+00  1.21D+00  1.12D+00
 E= -264.332102605280     Delta-E=       -0.000000000781 Rises=F Damp=F
 DIIS: error= 2.20D-07 at cycle  11 NSaved=  11.
 NSaved=11 IEnMin=11 EnMin= -264.332102605280     IErMin=11 ErrMin= 2.20D-07
 ErrMax= 2.20D-07  0.00D+00 EMaxC= 1.00D-01 BMatC= 1.98D-11 BMatP= 4.28D-10
 IDIUse=1 WtCom= 1.00D+00 WtEn= 0.00D+00
 Coeff-Com: -0.156D-05 0.240D-04 0.972D-04 0.436D-04-0.117D-02-0.157D-02
 Coeff-Com:  0.470D-02 0.111D-01-0.842D-01-0.122D+00 0.119D+01
 Coeff:     -0.156D-05 0.240D-04 0.972D-04 0.436D-04-0.117D-02-0.157D-02
 Coeff:      0.470D-02 0.111D-01-0.842D-01-0.122D+00 0.119D+01
 Gap=     0.453 Goal=   None    Shift=    0.000
 RMSDP=2.14D-08 MaxDP=1.52D-06 DE=-7.81D-10 OVMax= 2.81D-06

 Cycle  12  Pass 1  IDiag  1:
 RMSU=  1.31D-08    CP:  9.71D-01  1.08D+00  9.34D-01  1.12D+00  1.44D+00
                    CP:  1.58D+00  1.65D+00  1.29D+00  1.22D+00  1.16D+00
                    CP:  1.26D+00
 E= -264.332102605329     Delta-E=       -0.000000000049 Rises=F Damp=F
 DIIS: error= 7.37D-08 at cycle  12 NSaved=  12.
 NSaved=12 IEnMin=12 EnMin= -264.332102605329     IErMin=12 ErrMin= 7.37D-08
 ErrMax= 7.37D-08  0.00D+00 EMaxC= 1.00D-01 BMatC= 1.61D-12 BMatP= 1.98D-11
 IDIUse=1 WtCom= 1.00D+00 WtEn= 0.00D+00
 Coeff-Com: -0.806D-06 0.829D-05 0.324D-04 0.851D-04-0.150D-03-0.103D-02
 Coeff-Com:  0.591D-03 0.666D-02-0.576D-02-0.521D-01 0.265D-01 0.103D+01
 Coeff:     -0.806D-06 0.829D-05 0.324D-04 0.851D-04-0.150D-03-0.103D-02
 Coeff:      0.591D-03 0.666D-02-0.576D-02-0.521D-01 0.265D-01 0.103D+01
 Gap=     0.453 Goal=   None    Shift=    0.000
 RMSDP=5.10D-09 MaxDP=2.28D-07 DE=-4.91D-11 OVMax= 9.53D-07

 SCF Done:  E(RHF) =  -264.332102605     A.U. after   12 cycles
            NFock= 12  Conv=0.51D-08     -V/T= 2.0004
 KE= 2.642189046007D+02 PE=-1.085738740092D+03 EE= 3.178613403530D+02
 Leave Link  502 at Tue Sep 30 17:00:08 2025, MaxMem=  4294967296 cpu:            1183.6 elap:              74.5
 (Enter /software/sse/easybuild/prefix/software/Gaussian/16.C.01-avx2-nsc1/g16/l601.exe)
 Copying SCF densities to generalized density rwf, IOpCl= 0 IROHF=0.
 SCF density gives NOpUse=  2 NOpAll=  2.

 **********************************************************************

            Population analysis using the SCF Density.

 **********************************************************************

 Orbital symmetries:
 BldTbl:  Degeneracy threshold= 1.00D-02
       Occupied  (A') (A') (A') (A') (A') (A') (A') (A') (A') (A')
                 (A') (A') (A') (A") (A') (A') (A') (A') (A") (A')
                 (A") (A")
       Virtual   (A') (A') (A") (A') (A') (A') (A") (A') (A") (A')
                 (A") (A') (A") (A') (A') (A') (A') (A') (A") (A")
                 (A') (A') (A') (A") (A') (A') (A') (A") (A') (A')
                 (A") (A') (A') (A') (A") (A') (A') (A') (A") (A')
                 (A') (A') (A") (A") (A') (A') (A") (A') (A') (A")
                 (A') (A') (A") (A') (A') (A") (A') (A") (A') (A")
                 (A') (A') (A') (A') (A") (A') (A") (A') (A") (A')
                 (A') (A") (A') (A') (A') (A") (A') (A') (A") (A')
                 (A') (A") (A') (A') (A') (A') (A') (A") (A') (A')
                 (A') (A") (A") (A') (A") (A') (A') (A") (A') (A")
                 (A') (A") (A') (A') (A') (A") (A') (A") (A') (A')
                 (A") (A') (A") (A') (A') (A') (A') (A") (A') (A")
                 (A") (A') (A") (A') (A') (A") (A") (A') (A') (A")
                 (A') (A') (A') (A") (A') (A") (A') (A') (A") (A')
                 (A") (A') (A') (A") (A") (A') (A') (A") (A') (A')
                 (A') (A") (A') (A") (A') (A') (A") (A') (A') (A")
                 (A") (A') (A') (A') (A") (A") (A') (A") (A') (A")
                 (A') (A') (A') (A") (A') (A') (A") (A') (A') (A")
                 (A') (A') (A") (A') (A') (A") (A") (A') (A") (A')
                 (A') (A") (A") (A') (A') (A') (A") (A') (A") (A')
                 (A") (A') (A') (A') (A") (A') (A") (A') (A') (A')
                 (A") (A") (A') (A') (A') (A") (A') (A") (A") (A')
                 (A') (A") (A') (A') (A") (A') (A') (A') (A") (A')
                 (A') (A") (A') (A") (A') (A') (A") (A') (A') (A")
                 (A") (A') (A') (A') (A') (A") (A') (A') (A") (A')
                 (A') (A') (A") (A') (A") (A') (A') (A') (A") (A')
                 (A") (A') (A") (A") (A') (A') (A") (A') (A') (A")
                 (A') (A') (A") (A") (A') (A") (A") (A') (A") (A')
                 (A') (A") (A') (A') (A") (A") (A') (A") (A') (A')
                 (A") (A') (A") (A') (A') (A') (A") (A') (A") (A')
                 (A") (A") (A') (A") (A') (A") (A') (A') (A") (A')
                 (A') (A') (A') (A') (A") (A') (A") (A') (A") (A")
                 (A') (A') (A') (A") (A") (A') (A') (A") (A') (A')
                 (A') (A") (A') (A') (A") (A') (A") (A') (A') (A")
                 (A') (A') (A") (A') (A") (A') (A") (A') (A') (A")
                 (A') (A") (A') (A') (A") (A') (A') (A") (A') (A')
                 (A") (A') (A") (A') (A") (A') (A') (A") (A') (A")
                 (A') (A") (A') (A") (A") (A') (A") (A') (A') (A")
                 (A") (A') (A") (A') (A') (A") (A') (A') (A') (A")
                 (A") (A') (A') (A') (A') (A') (A") (A') (A') (A')
                 (A') (A') (A') (A') (A') (A') (A') (A') (A') (A')
                 (A') (A') (A') (A') (A')
 The electronic state is 1-A'.
 Alpha  occ. eigenvalues --  -15.83767 -15.83220 -11.53020 -11.46053 -11.45486
 Alpha  occ. eigenvalues --  -11.44478  -1.59846  -1.43816  -1.24884  -1.18046
 Alpha  occ. eigenvalues --   -1.05308  -1.02005  -0.98076  -0.85940  -0.85467
 Alpha  occ. eigenvalues --   -0.82046  -0.81123  -0.79357  -0.76671  -0.74157
 Alpha  occ. eigenvalues --   -0.62852  -0.54238
 Alpha virt. eigenvalues --   -0.08987  -0.07274  -0.07152  -0.06797  -0.04767
 Alpha virt. eigenvalues --   -0.04674  -0.04038  -0.03717  -0.03209  -0.01699
 Alpha virt. eigenvalues --   -0.01393  -0.01086  -0.00917   0.00087   0.00489
 Alpha virt. eigenvalues --    0.01408   0.01765   0.02329   0.03015   0.03391
 Alpha virt. eigenvalues --    0.03732   0.04503   0.05171   0.05825   0.06005
 Alpha virt. eigenvalues --    0.07356   0.08049   0.08330   0.09321   0.10366
 Alpha virt. eigenvalues --    0.10717   0.11050   0.12661   0.13082   0.13544
 Alpha virt. eigenvalues --    0.15979   0.16773   0.17988   0.18203   0.18399
 Alpha virt. eigenvalues --    0.18925   0.19327   0.20013   0.20301   0.20426
 Alpha virt. eigenvalues --    0.21621   0.21892   0.22752   0.23994   0.24097
 Alpha virt. eigenvalues --    0.25026   0.26257   0.26401   0.27032   0.27494
 Alpha virt. eigenvalues --    0.27727   0.27822   0.28564   0.29880   0.30728
 Alpha virt. eigenvalues --    0.30986   0.31858   0.32062   0.32821   0.33330
 Alpha virt. eigenvalues --    0.34171   0.34548   0.34843   0.35129   0.35705
 Alpha virt. eigenvalues --    0.36715   0.37229   0.38078   0.38657   0.39474
 Alpha virt. eigenvalues --    0.39930   0.40583   0.41499   0.43981   0.45173
 Alpha virt. eigenvalues --    0.45427   0.47858   0.48061   0.49456   0.50352
 Alpha virt. eigenvalues --    0.50581   0.51059   0.53441   0.55374   0.55536
 Alpha virt. eigenvalues --    0.57656   0.57675   0.58303   0.59630   0.59801
 Alpha virt. eigenvalues --    0.60806   0.62972   0.63299   0.64498   0.66194
 Alpha virt. eigenvalues --    0.66492   0.67409   0.68141   0.71667   0.72352
 Alpha virt. eigenvalues --    0.73141   0.73335   0.74711   0.75263   0.75695
 Alpha virt. eigenvalues --    0.75972   0.77243   0.77821   0.78407   0.79117
 Alpha virt. eigenvalues --    0.79412   0.79915   0.80205   0.82148   0.82515
 Alpha virt. eigenvalues --    0.83897   0.84673   0.85080   0.85341   0.87585
 Alpha virt. eigenvalues --    0.88391   0.89358   0.89618   0.90683   0.92142
 Alpha virt. eigenvalues --    0.92369   0.93244   0.95708   0.96716   0.97400
 Alpha virt. eigenvalues --    0.98263   0.98304   0.99983   1.00885   1.02296
 Alpha virt. eigenvalues --    1.02304   1.03091   1.03499   1.03733   1.04926
 Alpha virt. eigenvalues --    1.05117   1.07697   1.09120   1.10182   1.12346
 Alpha virt. eigenvalues --    1.12663   1.12840   1.13805   1.14182   1.16415
 Alpha virt. eigenvalues --    1.17898   1.18170   1.19442   1.21325   1.22148
 Alpha virt. eigenvalues --    1.24314   1.25145   1.26950   1.27948   1.28120
 Alpha virt. eigenvalues --    1.29001   1.30871   1.31349   1.32491   1.32711
 Alpha virt. eigenvalues --    1.33474   1.34501   1.36004   1.37614   1.38176
 Alpha virt. eigenvalues --    1.40628   1.43756   1.45139   1.45439   1.46148
 Alpha virt. eigenvalues --    1.46281   1.49167   1.50131   1.51723   1.53312
 Alpha virt. eigenvalues --    1.53782   1.56128   1.56513   1.57214   1.57618
 Alpha virt. eigenvalues --    1.61784   1.61946   1.63178   1.63470   1.68228
 Alpha virt. eigenvalues --    1.69612   1.70989   1.72583   1.73393   1.74372
 Alpha virt. eigenvalues --    1.74391   1.76919   1.78488   1.80380   1.82307
 Alpha virt. eigenvalues --    1.83839   1.84510   1.86708   1.89190   1.91074
 Alpha virt. eigenvalues --    1.91789   1.95612   1.96340   1.99290   2.00608
 Alpha virt. eigenvalues --    2.01893   2.04051   2.04157   2.06726   2.06869
 Alpha virt. eigenvalues --    2.06974   2.08472   2.10156   2.13217   2.14707
 Alpha virt. eigenvalues --    2.15623   2.18736   2.21768   2.23483   2.23915
 Alpha virt. eigenvalues --    2.26625   2.28056   2.29727   2.31084   2.31438
 Alpha virt. eigenvalues --    2.35438   2.39416   2.41234   2.42072   2.42329
 Alpha virt. eigenvalues --    2.45871   2.47235   2.48841   2.51837   2.55944
 Alpha virt. eigenvalues --    2.56007   2.59440   2.66415   2.74855   2.76979
 Alpha virt. eigenvalues --    2.79674   2.88263   2.88953   2.91430   2.94737
 Alpha virt. eigenvalues --    2.98850   3.01856   3.04423   3.13975   3.16503
 Alpha virt. eigenvalues --    3.16536   3.19399   3.21432   3.28115   3.29317
 Alpha virt. eigenvalues --    3.32465   3.33554   3.34116   3.35346   3.37434
 Alpha virt. eigenvalues --    3.39731   3.41099   3.42282   3.46090   3.46829
 Alpha virt. eigenvalues --    3.50148   3.52302   3.53719   3.54367   3.57468
 Alpha virt. eigenvalues --    3.59715   3.59868   3.60787   3.62624   3.63957
 Alpha virt. eigenvalues --    3.64489   3.68501   3.69481   3.70172   3.72212
 Alpha virt. eigenvalues --    3.72352   3.75455   3.80223   3.80579   3.82707
 Alpha virt. eigenvalues --    3.84595   3.84645   3.90718   3.92205   3.92623
 Alpha virt. eigenvalues --    3.94034   3.96062   3.96822   3.97710   4.01040
 Alpha virt. eigenvalues --    4.01643   4.03860   4.03999   4.05912   4.07306
 Alpha virt. eigenvalues --    4.08869   4.12194   4.14779   4.16881   4.17209
 Alpha virt. eigenvalues --    4.18636   4.21128   4.22481   4.23257   4.27749
 Alpha virt. eigenvalues --    4.29020   4.30164   4.31881   4.35936   4.38810
 Alpha virt. eigenvalues --    4.40874   4.43901   4.45114   4.48004   4.52296
 Alpha virt. eigenvalues --    4.53491   4.54831   4.56914   4.60522   4.63404
 Alpha virt. eigenvalues --    4.65475   4.67191   4.71678   4.74491   4.75693
 Alpha virt. eigenvalues --    4.76964   4.81318   4.82641   4.85280   4.86170
 Alpha virt. eigenvalues --    4.87483   4.90030   4.93089   4.96091   4.98410
 Alpha virt. eigenvalues --    5.01170   5.02984   5.05705   5.07797   5.08306
 Alpha virt. eigenvalues --    5.11147   5.12209   5.14324   5.19796   5.25841
 Alpha virt. eigenvalues --    5.30179   5.32043   5.32680   5.33627   5.39010
 Alpha virt. eigenvalues --    5.39706   5.42225   5.47714   5.50274   5.52240
 Alpha virt. eigenvalues --    5.54292   5.55300   5.59064   5.59541   5.62210
 Alpha virt. eigenvalues --    5.65234   5.67306   5.69725   5.74583   5.77313
 Alpha virt. eigenvalues --    5.79583   5.89000   5.89713   5.91960   5.93817
 Alpha virt. eigenvalues --    5.99073   6.01452   6.06896   6.10382   6.11767
 Alpha virt. eigenvalues --    6.19199   6.19419   6.23849   6.35412   6.42704
 Alpha virt. eigenvalues --    6.44834   6.52422   6.53203   6.57534   6.63497
 Alpha virt. eigenvalues --    6.65626   6.75404   6.81072   6.90077   6.94359
 Alpha virt. eigenvalues --    7.00009   7.13640   7.45311   7.72428  16.61017
 Alpha virt. eigenvalues --   17.22416  18.18120  19.02522  19.66646  20.45579
          Condensed to atoms (all electrons):
               1          2          3          4          5          6
     1  N    6.424177   0.263387  -0.052527  -0.281007   0.421306  -0.010704
     2  C    0.263387   6.708603  -0.302197  -0.125285  -0.309807   0.007618
     3  C   -0.052527  -0.302197   6.865546   0.238478  -0.290890  -0.090530
     4  N   -0.281007  -0.125285   0.238478   6.292140   0.397112   0.214376
     5  C    0.421306  -0.309807  -0.290890   0.397112   6.426888  -0.236218
     6  C   -0.010704   0.007618  -0.090530   0.214376  -0.236218   5.869425
     7  H   -0.031858   0.201567   0.013124   0.004121  -0.021457   0.000507
     8  H    0.027569  -0.017548   0.255723  -0.055731  -0.008480  -0.011568
     9  H   -0.001542  -0.025036  -0.038878   0.001041   0.181402  -0.012912
    10  H   -0.001863   0.002624  -0.005124   0.038499  -0.018093   0.373618
    11  H   -0.001863   0.002624  -0.005124   0.038499  -0.018093   0.373618
    12  H    0.004709  -0.000935  -0.011179  -0.041022   0.043920   0.342851
    13  H    0.474996  -0.095899   0.016833  -0.003552  -0.131186   0.003830
               7          8          9         10         11         12
     1  N   -0.031858   0.027569  -0.001542  -0.001863  -0.001863   0.004709
     2  C    0.201567  -0.017548  -0.025036   0.002624   0.002624  -0.000935
     3  C    0.013124   0.255723  -0.038878  -0.005124  -0.005124  -0.011179
     4  N    0.004121  -0.055731   0.001041   0.038499   0.038499  -0.041022
     5  C   -0.021457  -0.008480   0.181402  -0.018093  -0.018093   0.043920
     6  C    0.000507  -0.011568  -0.012912   0.373618   0.373618   0.342851
     7  H    0.217380  -0.005502  -0.002498   0.000130   0.000130  -0.000361
     8  H   -0.005502   0.244250  -0.004731  -0.000786  -0.000786   0.001480
     9  H   -0.002498  -0.004731   0.218279  -0.001274  -0.001274   0.006408
    10  H    0.000130  -0.000786  -0.001274   0.240200   0.015595   0.003053
    11  H    0.000130  -0.000786  -0.001274   0.015595   0.240200   0.003053
    12  H   -0.000361   0.001480   0.006408   0.003053   0.003053   0.267565
    13  H    0.016040  -0.000657   0.007554   0.000074   0.000074   0.000263
              13
     1  N    0.474996
     2  C   -0.095899
     3  C    0.016833
     4  N   -0.003552
     5  C   -0.131186
     6  C    0.003830
     7  H    0.016040
     8  H   -0.000657
     9  H    0.007554
    10  H    0.000074
    11  H    0.000074
    12  H    0.000263
    13  H    0.541693
 Mulliken charges:
               1
     1  N   -0.234782
     2  C   -0.309715
     3  C   -0.593254
     4  N    0.282332
     5  C   -0.436404
     6  C   -0.823910
     7  H    0.608676
     8  H    0.576768
     9  H    0.673462
    10  H    0.353348
    11  H    0.353348
    12  H    0.380195
    13  H    0.169937
 Sum of Mulliken charges =   1.00000
 Mulliken charges with hydrogens summed into heavy atoms:
               1
     1  N   -0.064845
     2  C    0.298961
     3  C   -0.016487
     4  N    0.282332
     5  C    0.237057
     6  C    0.262981
 DipInt: DoE/N= T F RetVal/Mat= T F Init=T NMatP=  1 IDeriv=0 Min/MaxMlt=  0  4
 Entering OneElI...
 OneElI was handed  4294318234 working-precision words.
 Multipole integrals L=0 to 4 MinM= 0 MaxM= 0.
 Requested accuracy = 0.1000D-12
 ShPair: Thresh= 1.00D-13 NBox=     0 BxSize= 0.00D+00 RnKept= 1.00D+01
         NSMCal=                10878 NSMKep=               10766
 PrmmSu-InSpLW:  IPartL=    0 NPrtUS=    1 NPrtUL=    1 DoSpLW=F IThBeg=    0 IThEnd=    0 NThAct=    1.
 PrSmSu:  IncTry=   512 NBBP=          10766 NTPThr=   100 NPartT=    1 Incr=         107 LDynOK=F GPUOK=F.
 PrsmSu:  NPrtUS=   1 ThrOK=F IAlg=2 LenDen=           0 ISkipM=0 DoSpLW=F IThBeg=    0 IThEnd=    0.
 Prism:   IPart=     0 DynPar=F LinDyn=F Incr=         107.
 PRISM was handed  4293575403 working-precision words and 10766 shell-pairs
 IPart=  0 NShTot=       10766 NBatch=         108 AvBLen=        99.7
 PrsmSu-ThDecC:  IPartSL=    0    0 NPrtUSL=    1    1 IThBeg=    0 IThEnd=    0 CPU=   -1 GPU=   -1 NThAct=    1.
 PrSmSu:  NxtVal=            108.
 Electronic moments (au):
        -44.00000000          0.60017649         -0.22333411          0.00000000
       -137.80415537       -311.51839484        -32.23034647         -0.91205262
          0.00000000         -0.00000000         17.77066296       -287.78546746
          0.00000000         10.74249463         77.41310086          0.00000000
          6.89613054        -21.23118942         -0.00000000          0.00000000
      -1172.85613564      -4989.40021088       -124.89254656        -42.41735160
          0.00000000        -63.10942109         -0.00000000          0.00000000
          0.00000000       -683.69000993       -110.15479234       -311.22717417
         -0.00000000          0.00000000         14.15653756
 Electronic spatial extent (au):  <R**2>=            481.5529
 DipInt: DoE/N= F T RetVal/Mat= T F Init=T NMatP=  1 IDeriv=0 Min/MaxMlt=  0  4
 Nuclear    moments (au):
         45.00000000          0.00000000         -0.00000000          0.00000000
        120.86058395        299.52636432          5.58820724         -0.42272287
         -0.00000000          0.00000000         -7.38328376        275.33280104
          0.00000000         -5.11508872        -83.89760316          0.00000000
         -5.36316701         25.87662424          0.00000000         -0.00000000
        820.03647983       4214.66914535         15.61403006         26.38053792
         -0.00000000         37.01618237          0.00000000         -0.00000000
          0.00000000        494.33869399          5.14718928        119.82370265
          0.00000000         -0.00000000        -24.83455813
 Total      moments (au):
          1.00000000          0.60017649         -0.22333411          0.00000000
        -16.94357142        -11.99203052        -26.64213923         -1.33477549
         -0.00000000          0.00000000         10.38737920        -12.45266642
          0.00000000          5.62740591         -6.48450230          0.00000000
          1.53296353          4.64543483          0.00000000         -0.00000000
       -352.81965581       -774.73106553       -109.27851650        -16.03681368
         -0.00000000        -26.09323873          0.00000000          0.00000000
          0.00000000       -189.35131595       -105.00760306       -191.40347152
          0.00000000         -0.00000000        -10.67802057
 Traceless Quadrup. (au):
          1.58234230          6.53388320         -8.11622551         -1.33477549
         -0.00000000          0.00000000
 Charge=              1.0000 electrons
 Dipole moment (field-independent basis, Debye):
    X=              1.5255    Y=             -0.5677    Z=              0.0000  Tot=              1.6277
 Quadrupole moment (field-independent basis, Debye-Ang):
   XX=            -22.7897   YY=            -16.1297   ZZ=            -35.8346
   XY=             -1.7953   XZ=             -0.0000   YZ=              0.0000
 Traceless Quadrupole moment (field-independent basis, Debye-Ang):
   XX=              2.1283   YY=              8.7883   ZZ=            -10.9166
   XY=             -1.7953   XZ=             -0.0000   YZ=              0.0000
 Octapole moment (field-independent basis, Debye-Ang**2):
  XXX=              7.3933  YYY=             -8.8633  ZZZ=              0.0000  XYY=              4.0054
  XXY=             -4.6154  XXZ=              0.0000  XZZ=              1.0911  YZZ=              3.3064
  YYZ=              0.0000  XYZ=             -0.0000
 Hexadecapole moment (field-independent basis, Debye-Ang**3):
 XXXX=           -132.8888 YYYY=           -291.8009 ZZZZ=            -41.1595 XXXY=             -6.0402
 XXXZ=             -0.0000 YYYX=             -9.8280 YYYZ=              0.0000 ZZZX=              0.0000
 ZZZY=              0.0000 XXYY=            -71.3188 XXZZ=            -39.5509 YYZZ=            -72.0917
 XXYZ=              0.0000 YYXZ=             -0.0000 ZZXY=             -4.0219
 N-N= 2.393263925331D+02 E-N=-1.085738744655D+03  KE= 2.642189046007D+02
 Symmetry A'   KE= 2.539914874247D+02
 Symmetry A"   KE= 1.022741717592D+01
 SetAtRh:  ITypeU=  23 NETotI=      -1 ICharg=  0 NETot=      45.
 StAtR1:  I=    1 I1=    1 IA=  7 C=   7.0 OKShel=TTT
                                                  SSP
                                                  223
 StAtR1:  I=    2 I1=    2 IA=  6 C=   6.0 OKShel=TTT
                                                  SSP
                                                  222
 StAtR1:  I=    3 I1=    3 IA=  6 C=   6.0 OKShel=TTT
                                                  SSP
                                                  222
 StAtR1:  I=    4 I1=    4 IA=  7 C=   7.0 OKShel=TTT
                                                  SSP
                                                  223
 StAtR1:  I=    5 I1=    5 IA=  6 C=   6.0 OKShel=TTT
                                                  SSP
                                                  222
 StAtR1:  I=    6 I1=    6 IA=  6 C=   6.0 OKShel=TTT
                                                  SSP
                                                  222
 StAtR1:  I=    7 I1=    7 IA=  1 C=   1.0 OKShel=T
                                                  S
                                                  1
 StAtR1:  I=    8 I1=    8 IA=  1 C=   1.0 OKShel=T
                                                  S
                                                  1
 StAtR1:  I=    9 I1=    9 IA=  1 C=   1.0 OKShel=T
                                                  S
                                                  1
 StAtR1:  I=   10 I1=   10 IA=  1 C=   1.0 OKShel=T
                                                  S
                                                  1
 StAtR1:  I=   11 I1=   11 IA=  1 C=   1.0 OKShel=T
                                                  S
                                                  1
 StAtR1:  I=   12 I1=   12 IA=  1 C=   1.0 OKShel=T
                                                  S
                                                  1
 StAtR1:  I=   13 I1=   13 IA=  1 C=   1.0 OKShel=T
                                                  S
                                                  1
          I=    1 IA=  7 I1=    1 NAtG=22 NE=   7.000 C=   7.000 Err= 6.08D-13
          I=    2 IA=  6 I1=    2 NAtG=23 NE=   6.000 C=   6.000 Err= 1.75D-11
          I=    3 IA=  6 I1=    3 NAtG=23 NE=   6.000 C=   6.000 Err= 1.75D-11
          I=    4 IA=  7 I1=    4 NAtG=22 NE=   7.000 C=   7.000 Err= 6.08D-13
          I=    5 IA=  6 I1=    5 NAtG=23 NE=   6.000 C=   6.000 Err= 1.75D-11
          I=    6 IA=  6 I1=    6 NAtG=23 NE=   6.000 C=   6.000 Err= 1.75D-11
          I=    7 IA=  1 I1=    7 NAtG=20 NE=   1.000 C=   1.000 Err= 2.80D-12
          I=    8 IA=  1 I1=    8 NAtG=20 NE=   1.000 C=   1.000 Err= 2.80D-12
          I=    9 IA=  1 I1=    9 NAtG=20 NE=   1.000 C=   1.000 Err= 2.80D-12
          I=   10 IA=  1 I1=   10 NAtG=20 NE=   1.000 C=   1.000 Err= 2.80D-12
          I=   11 IA=  1 I1=   11 NAtG=20 NE=   1.000 C=   1.000 Err= 2.80D-12
          I=   12 IA=  1 I1=   12 NAtG=20 NE=   1.000 C=   1.000 Err= 2.80D-12
          I=   13 IA=  1 I1=   13 NAtG=20 NE=   1.000 C=   1.000 Err= 2.80D-12
 Pruned (  99, 590) grid will be used in numerical quadrature.
 IPart=  0 IRanGd=          0 ScrnBf=T ScrnGd=T RCrit=4.00D+00 DoMicB=T.
 CutRad = 1000.00    CtRdIn =    0.00    XCrit =  15.00   ICut = 0
 Pruned (  99, 590) grid will be used in numerical quadrature.
 IPart=  1 IRanGd=          0 ScrnBf=T ScrnGd=T RCrit=4.00D+00 DoMicB=T.
 CutRad = 1000.00    CtRdIn =    0.00    XCrit =  15.00   ICut = 0
 Pruned (  99, 590) grid will be used in numerical quadrature.
 Pruned (  99, 590) grid will be used in numerical quadrature.
 IPart= 15 IRanGd=          0 ScrnBf=T ScrnGd=T RCrit=4.00D+00 DoMicB=T.
 Pruned (  99, 590) grid will be used in numerical quadrature.
 IPart= 10 IRanGd=          0 ScrnBf=T ScrnGd=T RCrit=4.00D+00 DoMicB=T.
 CutRad = 1000.00    CtRdIn =    0.00    XCrit =  15.00   ICut = 0
 IPart= 14 IRanGd=          0 ScrnBf=T ScrnGd=T RCrit=4.00D+00 DoMicB=T.
 Pruned (  99, 590) grid will be used in numerical quadrature.
 CutRad = 1000.00    CtRdIn =    0.00    XCrit =  15.00   ICut = 0
 Pruned (  99, 590) grid will be used in numerical quadrature.
 Pruned (  99, 590) grid will be used in numerical quadrature.
 IPart=  8 IRanGd=          0 ScrnBf=T ScrnGd=T RCrit=4.00D+00 DoMicB=T.
 CutRad = 1000.00    CtRdIn =    0.00    XCrit =  15.00   ICut = 0
 CutRad = 1000.00    CtRdIn =    0.00    XCrit =  15.00   ICut = 0
 IPart=  4 IRanGd=          0 ScrnBf=T ScrnGd=T RCrit=4.00D+00 DoMicB=T.
 Pruned (  99, 590) grid will be used in numerical quadrature.
 IPart= 12 IRanGd=          0 ScrnBf=T ScrnGd=T RCrit=4.00D+00 DoMicB=T.
 Pruned (  99, 590) grid will be used in numerical quadrature.
 IPart=  6 IRanGd=          0 ScrnBf=T ScrnGd=T RCrit=4.00D+00 DoMicB=T.
 CutRad = 1000.00    CtRdIn =    0.00    XCrit =  15.00   ICut = 0
 Pruned (  99, 590) grid will be used in numerical quadrature.
 Pruned (  99, 590) grid will be used in numerical quadrature.
 IPart=  7 IRanGd=          0 ScrnBf=T ScrnGd=T RCrit=4.00D+00 DoMicB=T.
 Pruned (  99, 590) grid will be used in numerical quadrature.
 Pruned (  99, 590) grid will be used in numerical quadrature.
 IPart=  5 IRanGd=          0 ScrnBf=T ScrnGd=T RCrit=4.00D+00 DoMicB=T.
 CutRad = 1000.00    CtRdIn =    0.00    XCrit =  15.00   ICut = 0
 Pruned (  99, 590) grid will be used in numerical quadrature.
 IPart= 13 IRanGd=          0 ScrnBf=T ScrnGd=T RCrit=4.00D+00 DoMicB=T.
 Pruned (  99, 590) grid will be used in numerical quadrature.
 CutRad = 1000.00    CtRdIn =    0.00    XCrit =  15.00   ICut = 0
 IPart=  0 Atom number   1 atomic number  7 has       23718 grid points.
 CutRad = 1000.00    CtRdIn =    0.00    XCrit =  15.00   ICut = 0
 CutRad = 1000.00    CtRdIn =    0.00    XCrit =  15.00   ICut = 0
 Pruned (  99, 590) grid will be used in numerical quadrature.
 IPart=  0 Atom   1 batch    1 overlaps   13 atoms,   131 shells and    13 DB shells.   NGrid=      2408
 IPart=  3 IRanGd=          0 ScrnBf=T ScrnGd=T RCrit=4.00D+00 DoMicB=T.
 CutRad = 1000.00    CtRdIn =    0.00    XCrit =  15.00   ICut = 0
 IPart=  9 IRanGd=          0 ScrnBf=T ScrnGd=T RCrit=4.00D+00 DoMicB=T.
 CutRad = 1000.00    CtRdIn =    0.00    XCrit =  15.00   ICut = 0
 CutRad = 1000.00    CtRdIn =    0.00    XCrit =  15.00   ICut = 0
 Symmetry reduced    86 angular points to    86 for atom    1.
 IPart= 11 IRanGd=          0 ScrnBf=T ScrnGd=T RCrit=4.00D+00 DoMicB=T.
 CutRad = 1000.00    CtRdIn =    0.00    XCrit =  15.00   ICut = 0
 IPart=  2 IRanGd=          0 ScrnBf=T ScrnGd=T RCrit=4.00D+00 DoMicB=T.
 CutRad = 1000.00    CtRdIn =    0.00    XCrit =  15.00   ICut = 0
 Pruned (  99, 590) grid will be used in numerical quadrature.
 IPart=  1 Atom number   1 atomic number  7 has       23718 grid points.
 IPart=  1 Atom   1 batch    2 overlaps   13 atoms,   133 shells and    13 DB shells.   NGrid=      2522
 Symmetry reduced   194 angular points to   194 for atom    1.
 Pruned (  99, 590) grid will be used in numerical quadrature.
 Pruned (  99, 590) grid will be used in numerical quadrature.
 IPart= 10 Atom number   1 atomic number  7 has       23718 grid points.
 IPart= 14 Atom number   1 atomic number  7 has       23718 grid points.
 IPart= 10 Atom   1 batch    3 overlaps   13 atoms,   137 shells and    13 DB shells.   NGrid=      2114
 IPart= 14 Atom   1 batch    4 overlaps   13 atoms,   137 shells and    13 DB shells.   NGrid=      1180
 Pruned (  99, 590) grid will be used in numerical quadrature.
 Symmetry reduced   302 angular points to   302 for atom    1.
 IPart= 15 Atom number   1 atomic number  7 has       23718 grid points.
 Pruned (  99, 590) grid will be used in numerical quadrature.
 IPart= 15 Atom   1 batch    6 overlaps   13 atoms,   140 shells and    13 DB shells.   NGrid=      1180
 IPart=  8 Atom number   1 atomic number  7 has       23718 grid points.
 Symmetry reduced   590 angular points to   590 for atom    1.
 IPart=  8 Atom   1 batch    5 overlaps   13 atoms,   138 shells and    13 DB shells.   NGrid=      1180
 Symmetry reduced   590 angular points to   590 for atom    1.
 Pruned (  99, 590) grid will be used in numerical quadrature.
 Symmetry reduced   590 angular points to   590 for atom    1.
 IPart=  6 Atom number   1 atomic number  7 has       23718 grid points.
 IPart=  6 Atom   1 batch    7 overlaps   13 atoms,   141 shells and    13 DB shells.   NGrid=      1180
 Symmetry reduced   590 angular points to   590 for atom    1.
 Pruned (  99, 590) grid will be used in numerical quadrature.
 IPart=  7 Atom number   1 atomic number  7 has       23718 grid points.
 IPart=  7 Atom   1 batch    8 overlaps   13 atoms,   144 shells and    13 DB shells.   NGrid=      1180
 Pruned (  99, 590) grid will be used in numerical quadrature.
 Symmetry reduced   590 angular points to   590 for atom    1.
 IPart=  4 Atom number   1 atomic number  7 has       23718 grid points.
 IPart=  4 Atom   1 batch    9 overlaps   13 atoms,   146 shells and    13 DB shells.   NGrid=      1180
 Pruned (  99, 590) grid will be used in numerical quadrature.
 Symmetry reduced   590 angular points to   590 for atom    1.
 Pruned (  99, 590) grid will be used in numerical quadrature.
 Pruned (  99, 590) grid will be used in numerical quadrature.
 IPart=  3 Atom number   1 atomic number  7 has       23718 grid points.
 Pruned (  99, 590) grid will be used in numerical quadrature.
 Pruned (  99, 590) grid will be used in numerical quadrature.
 IPart=  3 Atom   1 batch   11 overlaps   13 atoms,   147 shells and    13 DB shells.   NGrid=      1180
 IPart= 11 Atom number   1 atomic number  7 has       23718 grid points.
 IPart= 13 Atom number   1 atomic number  7 has       23718 grid points.
 Pruned (  99, 590) grid will be used in numerical quadrature.
 IPart=  9 Atom number   1 atomic number  7 has       23718 grid points.
 IPart=  2 Atom number   1 atomic number  7 has       23718 grid points.
 IPart=  9 Atom   1 batch   13 overlaps   13 atoms,   146 shells and    13 DB shells.   NGrid=       604
 IPart=  2 Atom   1 batch   15 overlaps   13 atoms,   144 shells and    13 DB shells.   NGrid=       604
 IPart= 11 Atom   1 batch   14 overlaps   13 atoms,   146 shells and    13 DB shells.   NGrid=       604
 IPart= 13 Atom   1 batch   12 overlaps   13 atoms,   146 shells and    13 DB shells.   NGrid=       590
 Pruned (  99, 590) grid will be used in numerical quadrature.
 Symmetry reduced   590 angular points to   590 for atom    1.
 Symmetry reduced   302 angular points to   302 for atom    1.
 Symmetry reduced   302 angular points to   302 for atom    1.
 IPart=  5 Atom number   1 atomic number  7 has       23718 grid points.
 Symmetry reduced   590 angular points to   590 for atom    1.
 IPart=  5 Atom   1 batch   16 overlaps   13 atoms,   140 shells and    13 DB shells.   NGrid=       604
 Symmetry reduced   302 angular points to   302 for atom    1.
 IPart= 12 Atom number   1 atomic number  7 has       23718 grid points.
 Symmetry reduced   302 angular points to   302 for atom    1.
 IPart= 12 Atom   1 batch   10 overlaps   13 atoms,   146 shells and    13 DB shells.   NGrid=      1180
 Symmetry reduced   590 angular points to   590 for atom    1.
 IPart=  5 Atom   1 batch   17 overlaps   13 atoms,   136 shells and    13 DB shells.   NGrid=       604
 IPart=  2 Atom   1 batch   18 overlaps   13 atoms,   117 shells and    13 DB shells.   NGrid=       604
 IPart= 11 Atom   1 batch   19 overlaps   13 atoms,    95 shells and    13 DB shells.   NGrid=       604
 IPart=  9 Atom   1 batch   20 overlaps   13 atoms,    66 shells and    12 DB shells.   NGrid=       604
 IPart= 13 Atom   1 batch   21 overlaps   13 atoms,    38 shells and     8 DB shells.   NGrid=       604
 Symmetry reduced   302 angular points to   302 for atom    1.
 IPart= 13 Atom   1 batch   22 overlaps   13 atoms,    16 shells and     0 DB shells.   NGrid=       604
 IPart=  9 Atom   1 batch   23 overlaps   13 atoms,     6 shells and     0 DB shells.   NGrid=       604
 Pruned (  99, 590) grid will be used in numerical quadrature.
 Pruned (  99, 590) grid will be used in numerical quadrature.
 IPart=  9 Atom number   2 atomic number  6 has       23114 grid points.
 IPart=  5 Atom number   2 atomic number  6 has       23114 grid points.
 Pruned (  99, 590) grid will be used in numerical quadrature.
 IPart=  9 Atom   2 batch    1 overlaps   13 atoms,   130 shells and    13 DB shells.   NGrid=      2408
 IPart= 11 Atom number   2 atomic number  6 has       23114 grid points.
 Symmetry reduced    86 angular points to    86 for atom    2.
 IPart= 11 Atom   2 batch    3 overlaps   13 atoms,   136 shells and    13 DB shells.   NGrid=      2114
 IPart=  5 Atom   2 batch    2 overlaps   13 atoms,   134 shells and    13 DB shells.   NGrid=      2522
 Symmetry reduced   302 angular points to   302 for atom    2.
 Pruned (  99, 590) grid will be used in numerical quadrature.
 Symmetry reduced   194 angular points to   194 for atom    2.
 IPart=  2 Atom number   2 atomic number  6 has       23114 grid points.
 IPart=  2 Atom   2 batch    4 overlaps   13 atoms,   139 shells and    13 DB shells.   NGrid=      1180
 Symmetry reduced   590 angular points to   590 for atom    2.
 Pruned (  99, 590) grid will be used in numerical quadrature.
 IPart= 13 Atom number   2 atomic number  6 has       23114 grid points.
 IPart= 13 Atom   2 batch    5 overlaps   13 atoms,   139 shells and    13 DB shells.   NGrid=      1180
 Symmetry reduced   590 angular points to   590 for atom    2.
 Pruned (  99, 590) grid will be used in numerical quadrature.
 IPart= 14 Atom number   2 atomic number  6 has       23114 grid points.
 IPart= 14 Atom   2 batch    6 overlaps   13 atoms,   140 shells and    13 DB shells.   NGrid=      1180
 Symmetry reduced   590 angular points to   590 for atom    2.
 Pruned (  99, 590) grid will be used in numerical quadrature.
 IPart=  8 Atom number   2 atomic number  6 has       23114 grid points.
 IPart=  8 Atom   2 batch    7 overlaps   13 atoms,   142 shells and    13 DB shells.   NGrid=      1180
 Symmetry reduced   590 angular points to   590 for atom    2.
 Pruned (  99, 590) grid will be used in numerical quadrature.
 IPart= 15 Atom number   2 atomic number  6 has       23114 grid points.
 IPart= 15 Atom   2 batch    8 overlaps   13 atoms,   145 shells and    13 DB shells.   NGrid=      1180
 Symmetry reduced   590 angular points to   590 for atom    2.
 Pruned (  99, 590) grid will be used in numerical quadrature.
 IPart=  6 Atom number   2 atomic number  6 has       23114 grid points.
 IPart=  6 Atom   2 batch    9 overlaps   13 atoms,   146 shells and    13 DB shells.   NGrid=      1180
 Symmetry reduced   590 angular points to   590 for atom    2.
 Pruned (  99, 590) grid will be used in numerical quadrature.
 IPart=  3 Atom number   2 atomic number  6 has       23114 grid points.
 IPart=  3 Atom   2 batch   10 overlaps   13 atoms,   146 shells and    13 DB shells.   NGrid=      1180
 Symmetry reduced   590 angular points to   590 for atom    2.
 Pruned (  99, 590) grid will be used in numerical quadrature.
 IPart=  7 Atom number   2 atomic number  6 has       23114 grid points.
 IPart=  7 Atom   2 batch   11 overlaps   13 atoms,   146 shells and    13 DB shells.   NGrid=      1180
 Symmetry reduced   590 angular points to   590 for atom    2.
 Pruned (  99, 590) grid will be used in numerical quadrature.
 IPart= 12 Atom number   2 atomic number  6 has       23114 grid points.
 IPart= 12 Atom   2 batch   12 overlaps   13 atoms,   146 shells and    13 DB shells.   NGrid=       590
 Symmetry reduced   590 angular points to   590 for atom    2.
 Pruned (  99, 590) grid will be used in numerical quadrature.
 IPart=  4 Atom number   2 atomic number  6 has       23114 grid points.
 IPart=  4 Atom   2 batch   13 overlaps   13 atoms,   146 shells and    13 DB shells.   NGrid=       604
 Symmetry reduced   302 angular points to   302 for atom    2.
 IPart= 12 Atom   2 batch   14 overlaps   13 atoms,   146 shells and    13 DB shells.   NGrid=       604
 Symmetry reduced   302 angular points to   302 for atom    2.
 IPart=  2 Atom   2 batch   15 overlaps   13 atoms,   141 shells and    13 DB shells.   NGrid=       604
 Symmetry reduced   302 angular points to   302 for atom    2.
 IPart=  4 Atom   2 batch   16 overlaps   13 atoms,   134 shells and    13 DB shells.   NGrid=       604
 IPart= 13 Atom   2 batch   17 overlaps   13 atoms,   122 shells and    13 DB shells.   NGrid=       604
 Symmetry reduced   302 angular points to   302 for atom    2.
 Pruned (  99, 590) grid will be used in numerical quadrature.
 IPart= 10 Atom number   2 atomic number  6 has       23114 grid points.
 IPart= 10 Atom   2 batch   18 overlaps   13 atoms,   103 shells and    13 DB shells.   NGrid=       604
 Symmetry reduced   302 angular points to   302 for atom    2.
 Pruned (  99, 590) grid will be used in numerical quadrature.
 IPart=  0 Atom number   2 atomic number  6 has       23114 grid points.
 IPart=  0 Atom   2 batch   19 overlaps   13 atoms,    71 shells and    13 DB shells.   NGrid=       604
 Symmetry reduced   302 angular points to   302 for atom    2.
 IPart=  0 Atom   2 batch   20 overlaps   13 atoms,    46 shells and     9 DB shells.   NGrid=       604
 IPart= 13 Atom   2 batch   21 overlaps   13 atoms,    26 shells and     0 DB shells.   NGrid=       604
 IPart=  0 Atom   2 batch   22 overlaps   13 atoms,     9 shells and     0 DB shells.   NGrid=       604
 Pruned (  99, 590) grid will be used in numerical quadrature.
 IPart= 13 Atom number   3 atomic number  6 has       23114 grid points.
 IPart= 13 Atom   3 batch    1 overlaps   13 atoms,   139 shells and    13 DB shells.   NGrid=      2408
 Symmetry reduced    86 angular points to    86 for atom    3.
 Pruned (  99, 590) grid will be used in numerical quadrature.
 IPart= 10 Atom number   3 atomic number  6 has       23114 grid points.
 IPart= 10 Atom   3 batch    2 overlaps   13 atoms,   143 shells and    13 DB shells.   NGrid=      2522
 Symmetry reduced   194 angular points to   194 for atom    3.
 Pruned (  99, 590) grid will be used in numerical quadrature.
 IPart=  0 Atom number   3 atomic number  6 has       23114 grid points.
 IPart=  0 Atom   3 batch    3 overlaps   13 atoms,   145 shells and    13 DB shells.   NGrid=      2114
 Symmetry reduced   302 angular points to   302 for atom    3.
 Pruned (  99, 590) grid will be used in numerical quadrature.
 IPart=  4 Atom number   3 atomic number  6 has       23114 grid points.
 IPart=  4 Atom   3 batch    4 overlaps   13 atoms,   146 shells and    13 DB shells.   NGrid=      1180
 Symmetry reduced   590 angular points to   590 for atom    3.
 Pruned (  99, 590) grid will be used in numerical quadrature.
 IPart=  1 Atom number   2 atomic number  6 has       23114 grid points.
 Pruned (  99, 590) grid will be used in numerical quadrature.
 IPart=  1 Atom number   3 atomic number  6 has       23114 grid points.
 IPart=  1 Atom   3 batch    5 overlaps   13 atoms,   147 shells and    13 DB shells.   NGrid=      1180
 Symmetry reduced   590 angular points to   590 for atom    3.
 Pruned (  99, 590) grid will be used in numerical quadrature.
 IPart=  2 Atom number   3 atomic number  6 has       23114 grid points.
 IPart=  2 Atom   3 batch    6 overlaps   13 atoms,   147 shells and    13 DB shells.   NGrid=      1180
 Symmetry reduced   590 angular points to   590 for atom    3.
 Pruned (  99, 590) grid will be used in numerical quadrature.
 IPart=  7 Atom number   3 atomic number  6 has       23114 grid points.
 IPart=  7 Atom   3 batch    7 overlaps   13 atoms,   147 shells and    13 DB shells.   NGrid=      1180
 Symmetry reduced   590 angular points to   590 for atom    3.
 Pruned (  99, 590) grid will be used in numerical quadrature.
 IPart= 12 Atom number   3 atomic number  6 has       23114 grid points.
 IPart= 12 Atom   3 batch    8 overlaps   13 atoms,   147 shells and    13 DB shells.   NGrid=      1180
 Symmetry reduced   590 angular points to   590 for atom    3.
 Pruned (  99, 590) grid will be used in numerical quadrature.
 IPart= 14 Atom number   3 atomic number  6 has       23114 grid points.
 IPart= 14 Atom   3 batch    9 overlaps   13 atoms,   147 shells and    13 DB shells.   NGrid=      1180
 Symmetry reduced   590 angular points to   590 for atom    3.
 Pruned (  99, 590) grid will be used in numerical quadrature.
 IPart=  8 Atom number   3 atomic number  6 has       23114 grid points.
 IPart=  8 Atom   3 batch   10 overlaps   13 atoms,   147 shells and    13 DB shells.   NGrid=      1180
 Symmetry reduced   590 angular points to   590 for atom    3.
 Pruned (  99, 590) grid will be used in numerical quadrature.
 IPart=  3 Atom number   3 atomic number  6 has       23114 grid points.
 IPart=  3 Atom   3 batch   11 overlaps   13 atoms,   146 shells and    13 DB shells.   NGrid=      1180
 Symmetry reduced   590 angular points to   590 for atom    3.
 Pruned (  99, 590) grid will be used in numerical quadrature.
 IPart= 15 Atom number   3 atomic number  6 has       23114 grid points.
 IPart= 15 Atom   3 batch   12 overlaps   13 atoms,   146 shells and    13 DB shells.   NGrid=       590
 Symmetry reduced   590 angular points to   590 for atom    3.
 Pruned (  99, 590) grid will be used in numerical quadrature.
 IPart=  6 Atom number   3 atomic number  6 has       23114 grid points.
 IPart=  6 Atom   3 batch   13 overlaps   13 atoms,   146 shells and    13 DB shells.   NGrid=       604
 Symmetry reduced   302 angular points to   302 for atom    3.
 Pruned (  99, 590) grid will be used in numerical quadrature.
 IPart= 11 Atom number   3 atomic number  6 has       23114 grid points.
 IPart= 11 Atom   3 batch   14 overlaps   13 atoms,   146 shells and    13 DB shells.   NGrid=       604
 Symmetry reduced   302 angular points to   302 for atom    3.
 Pruned (  99, 590) grid will be used in numerical quadrature.
 IPart=  9 Atom number   3 atomic number  6 has       23114 grid points.
 IPart=  9 Atom   3 batch   15 overlaps   13 atoms,   141 shells and    13 DB shells.   NGrid=       604
 Symmetry reduced   302 angular points to   302 for atom    3.
 Pruned (  99, 590) grid will be used in numerical quadrature.
 IPart=  5 Atom number   3 atomic number  6 has       23114 grid points.
 IPart=  5 Atom   3 batch   16 overlaps   13 atoms,   134 shells and    13 DB shells.   NGrid=       604
 Symmetry reduced   302 angular points to   302 for atom    3.
 IPart= 15 Atom   3 batch   17 overlaps   13 atoms,   123 shells and    13 DB shells.   NGrid=       604
 Symmetry reduced   302 angular points to   302 for atom    3.
 IPart=  6 Atom   3 batch   18 overlaps   13 atoms,    93 shells and    13 DB shells.   NGrid=       604
 IPart= 11 Atom   3 batch   19 overlaps   13 atoms,    71 shells and    13 DB shells.   NGrid=       604
 IPart=  6 Atom   3 batch   20 overlaps   13 atoms,    43 shells and     9 DB shells.   NGrid=       604
 IPart=  6 Atom   3 batch   21 overlaps   13 atoms,    19 shells and     0 DB shells.   NGrid=       604
 IPart= 11 Atom   3 batch   22 overlaps   13 atoms,     9 shells and     0 DB shells.   NGrid=       604
 Pruned (  99, 590) grid will be used in numerical quadrature.
 IPart=  9 Atom number   4 atomic number  7 has       23416 grid points.
 IPart=  9 Atom   4 batch    1 overlaps   13 atoms,   142 shells and    13 DB shells.   NGrid=      2408
 Symmetry reduced    86 angular points to    86 for atom    4.
 Pruned (  99, 590) grid will be used in numerical quadrature.
 IPart= 15 Atom number   4 atomic number  7 has       23416 grid points.
 IPart= 15 Atom   4 batch    2 overlaps   13 atoms,   144 shells and    13 DB shells.   NGrid=      2522
 Symmetry reduced   194 angular points to   194 for atom    4.
 Pruned (  99, 590) grid will be used in numerical quadrature.
 Pruned (  99, 590) grid will be used in numerical quadrature.
 IPart=  6 Atom number   4 atomic number  7 has       23416 grid points.
 IPart= 11 Atom number   4 atomic number  7 has       23416 grid points.
 IPart=  6 Atom   4 batch    3 overlaps   13 atoms,   146 shells and    13 DB shells.   NGrid=      2114
 IPart= 11 Atom   4 batch    4 overlaps   13 atoms,   146 shells and    13 DB shells.   NGrid=      1180
 Symmetry reduced   302 angular points to   302 for atom    4.
 Symmetry reduced   590 angular points to   590 for atom    4.
 Pruned (  99, 590) grid will be used in numerical quadrature.
 IPart=  5 Atom number   4 atomic number  7 has       23416 grid points.
 IPart=  5 Atom   4 batch    5 overlaps   13 atoms,   147 shells and    13 DB shells.   NGrid=      1180
 Symmetry reduced   590 angular points to   590 for atom    4.
 Pruned (  99, 590) grid will be used in numerical quadrature.
 IPart=  4 Atom number   4 atomic number  7 has       23416 grid points.
 IPart=  4 Atom   4 batch    6 overlaps   13 atoms,   147 shells and    13 DB shells.   NGrid=      1180
 Symmetry reduced   590 angular points to   590 for atom    4.
 Pruned (  99, 590) grid will be used in numerical quadrature.
 IPart=  1 Atom number   4 atomic number  7 has       23416 grid points.
 IPart=  1 Atom   4 batch    7 overlaps   13 atoms,   147 shells and    13 DB shells.   NGrid=      1180
 Symmetry reduced   590 angular points to   590 for atom    4.
 Pruned (  99, 590) grid will be used in numerical quadrature.
 IPart=  3 Atom number   4 atomic number  7 has       23416 grid points.
 IPart=  3 Atom   4 batch    8 overlaps   13 atoms,   147 shells and    13 DB shells.   NGrid=      1180
 Symmetry reduced   590 angular points to   590 for atom    4.
 Pruned (  99, 590) grid will be used in numerical quadrature.
 IPart=  8 Atom number   4 atomic number  7 has       23416 grid points.
 IPart=  8 Atom   4 batch    9 overlaps   13 atoms,   147 shells and    13 DB shells.   NGrid=      1180
 Symmetry reduced   590 angular points to   590 for atom    4.
 Pruned (  99, 590) grid will be used in numerical quadrature.
 IPart=  2 Atom number   4 atomic number  7 has       23416 grid points.
 IPart=  2 Atom   4 batch   10 overlaps   13 atoms,   147 shells and    13 DB shells.   NGrid=      1180
 Symmetry reduced   590 angular points to   590 for atom    4.
 Pruned (  99, 590) grid will be used in numerical quadrature.
 IPart=  7 Atom number   4 atomic number  7 has       23416 grid points.
 IPart=  7 Atom   4 batch   11 overlaps   13 atoms,   147 shells and    13 DB shells.   NGrid=      1180
 Symmetry reduced   590 angular points to   590 for atom    4.
 Pruned (  99, 590) grid will be used in numerical quadrature.
 IPart= 14 Atom number   4 atomic number  7 has       23416 grid points.
 IPart= 14 Atom   4 batch   12 overlaps   13 atoms,   146 shells and    13 DB shells.   NGrid=       590
 Symmetry reduced   590 angular points to   590 for atom    4.
 Pruned (  99, 590) grid will be used in numerical quadrature.
[...]
 Petite list used in FoFCou.
 Leave Link  703 at Tue Sep 30 17:00:50 2025, MaxMem=  4294967296 cpu:             640.1 elap:              40.3
 (Enter /software/sse/easybuild/prefix/software/Gaussian/16.C.01-avx2-nsc1/g16/l716.exe)
 Dipole        = 6.00176495D-01-2.23334113D-01 4.44089210D-16
 ***** Axes restored to original set *****
 -------------------------------------------------------------------
 Center     Atomic                   Forces (Hartrees/Bohr)
 Number     Number              X              Y              Z
 -------------------------------------------------------------------
      1        7           0.000004295   -0.000001669   -0.000000000
      2        6           0.000005841    0.000002705    0.000000000
      3        6          -0.000001074    0.000002843    0.000000000
      4        7          -0.000003473   -0.000000262   -0.000000000
      5        6          -0.000001500   -0.000003366   -0.000000000
      6        6          -0.000003801   -0.000005704    0.000000000
      7        1          -0.000002062   -0.000001814    0.000000000
      8        1           0.000000302   -0.000001743   -0.000000000
      9        1           0.000000543    0.000002582    0.000000000
     10        1           0.000000990    0.000002450    0.000007034
     11        1           0.000000990    0.000002450   -0.000007034
     12        1           0.000001637   -0.000000263    0.000000000
     13        1          -0.000002688    0.000001790   -0.000000000
 -------------------------------------------------------------------
 Cartesian Forces:  Max     0.000007034 RMS     0.000002719
 Leave Link  716 at Tue Sep 30 17:00:50 2025, MaxMem=  4294967296 cpu:               0.4 elap:               0.0
 (Enter /software/sse/easybuild/prefix/software/Gaussian/16.C.01-avx2-nsc1/g16/l103.exe)

 GradGradGradGradGradGradGradGradGradGradGradGradGradGradGradGradGradGrad
 Berny optimization.
 FormGI is forming the generalized inverse of G from B-inverse, IUseBI=4.
 Internal  Forces:  Max     0.000005146 RMS     0.000001653
 Search for a local minimum.
 Step number   1 out of a maximum of   70
 All quantities printed in internal units (Hartrees-Bohrs-Radians)
 RMS Force = .16526D-05 SwitMx=.10000D-02 MixMth= 2
 Mixed Optimization -- En-DIIS/RFO-DIIS
 Second derivative matrix not updated -- first step.
 ITU=  0
     Eigenvalues ---    0.00835   0.01715   0.02286   0.02349   0.02454
     Eigenvalues ---    0.02659   0.02703   0.02886   0.07611   0.07680
     Eigenvalues ---    0.16000   0.16000   0.16000   0.16000   0.16000
     Eigenvalues ---    0.16000   0.16000   0.22000   0.23180   0.25000
     Eigenvalues ---    0.36187   0.36187   0.36275   0.36375   0.37471
     Eigenvalues ---    0.37731   0.37771   0.43871   0.48226   0.48669
     Eigenvalues ---    0.52855   0.61136   0.63218
 RFO step:  Lambda= 0.00000000D+00 EMin= 8.35192917D-03
 Linear search not attempted -- first point.
 Iteration  1 RMS(Cart)=  0.00001062 RMS(Int)=  0.00000000
 Iteration  2 RMS(Cart)=  0.00000000 RMS(Int)=  0.00000000
 ITry= 1 IFail=0 DXMaxC= 3.99D-05 DCOld= 1.00D+10 DXMaxT= 3.00D-01 DXLimC= 3.00D+00 Rises=F
 ClnCor:  largest displacement from symmetrization is 1.26D-12 for atom    11.
 Variable       Old X    -DE/DX   Delta X   Delta X   Delta X     New X
                                 (Linear)    (Quad)   (Total)
    R1        2.59822   0.00000   0.00000   0.00000   0.00000   2.59822
    R2        2.48371   0.00000   0.00000   0.00000   0.00000   2.48371
    R3        1.87933  -0.00000   0.00000  -0.00001  -0.00001   1.87932
    R4        2.52557   0.00000   0.00000   0.00001   0.00001   2.52557
    R5        2.01400  -0.00000   0.00000  -0.00001  -0.00001   2.01400
    R6        2.60931   0.00000   0.00000   0.00000   0.00000   2.60932
    R7        2.01459  -0.00000   0.00000  -0.00000  -0.00000   2.01458
    R8        2.46657   0.00000   0.00000   0.00000   0.00000   2.46658
    R9        2.76799   0.00000   0.00000   0.00000   0.00000   2.76799
   R10        2.01842  -0.00000   0.00000  -0.00001  -0.00001   2.01841
   R11        2.03789  -0.00001   0.00000  -0.00001  -0.00001   2.03788
   R12        2.03789  -0.00001   0.00000  -0.00001  -0.00001   2.03788
   R13        2.03653  -0.00000   0.00000  -0.00000  -0.00000   2.03653
    A1        1.90241   0.00000   0.00000   0.00000   0.00000   1.90242
    A2        2.20193  -0.00000   0.00000  -0.00000  -0.00000   2.20193
    A3        2.17884   0.00000   0.00000   0.00000   0.00000   2.17884
    A4        1.85559  -0.00000   0.00000  -0.00000  -0.00000   1.85559
    A5        2.13843   0.00000   0.00000   0.00000   0.00000   2.13843
    A6        2.28916   0.00000   0.00000   0.00000   0.00000   2.28916
    A7        1.87241   0.00000   0.00000   0.00000   0.00000   1.87242
    A8        2.28137   0.00000   0.00000   0.00000   0.00000   2.28137
    A9        2.12940  -0.00000   0.00000  -0.00001  -0.00001   2.12939
   A10        1.89154  -0.00000   0.00000  -0.00000  -0.00000   1.89153
   A11        2.18865   0.00000   0.00000   0.00000   0.00000   2.18866
   A12        2.20299   0.00000   0.00000   0.00000   0.00000   2.20299
   A13        1.90282   0.00000   0.00000   0.00000   0.00000   1.90282
   A14        2.18817  -0.00000   0.00000  -0.00000  -0.00000   2.18816
   A15        2.19220  -0.00000   0.00000  -0.00000  -0.00000   2.19220
   A16        1.90628  -0.00000   0.00000  -0.00001  -0.00001   1.90627
   A17        1.90628  -0.00000   0.00000  -0.00001  -0.00001   1.90627
   A18        1.90021  -0.00000   0.00000   0.00001   0.00001   1.90022
   A19        1.92365  -0.00000   0.00000  -0.00005  -0.00005   1.92360
   A20        1.91360   0.00000   0.00000   0.00003   0.00003   1.91363
   A21        1.91360   0.00000   0.00000   0.00003   0.00003   1.91363
    D1        0.00000   0.00000   0.00000   0.00000   0.00000   0.00000
    D2        3.14159   0.00000   0.00000   0.00000   0.00000   3.14159
    D3        3.14159   0.00000   0.00000   0.00000   0.00000   3.14159
    D4        0.00000   0.00000   0.00000   0.00000   0.00000   0.00000
    D5        0.00000  -0.00000   0.00000  -0.00000   0.00000   0.00000
    D6        3.14159   0.00000   0.00000   0.00000   0.00000   3.14159
    D7        3.14159  -0.00000   0.00000  -0.00000   0.00000   3.14159
    D8        0.00000   0.00000   0.00000   0.00000   0.00000   0.00000
    D9        0.00000  -0.00000   0.00000  -0.00000   0.00000   0.00000
   D10        3.14159  -0.00000   0.00000  -0.00000   0.00000   3.14159
   D11        3.14159  -0.00000   0.00000  -0.00000   0.00000   3.14159
   D12        0.00000   0.00000   0.00000   0.00000   0.00000   0.00000
   D13        0.00000   0.00000   0.00000   0.00000   0.00000   0.00000
   D14        3.14159   0.00000   0.00000  -0.00000   0.00000   3.14159
   D15        3.14159   0.00000   0.00000   0.00000   0.00000   3.14159
   D16        0.00000  -0.00000   0.00000  -0.00000   0.00000   0.00000
   D17        0.00000  -0.00000   0.00000  -0.00000   0.00000   0.00000
   D18        3.14159  -0.00000   0.00000  -0.00000   0.00000   3.14159
   D19        3.14159   0.00000   0.00000   0.00000   0.00000   3.14159
   D20        0.00000  -0.00000   0.00000  -0.00000   0.00000   0.00000
   D21        1.05250  -0.00000   0.00000  -0.00003  -0.00003   1.05247
   D22       -1.05250   0.00000   0.00000   0.00003   0.00003  -1.05247
   D23        3.14159   0.00000   0.00000  -0.00000   0.00000   3.14159
   D24       -2.08909  -0.00000   0.00000  -0.00003  -0.00003  -2.08913
   D25        2.08909   0.00000   0.00000   0.00003   0.00003   2.08913
   D26        0.00000   0.00000   0.00000  -0.00000   0.00000   0.00000
         Item               Value     Threshold  Converged?
 Maximum Force            0.000005     0.000015     YES
 RMS     Force            0.000002     0.000010     YES
 Maximum Displacement     0.000040     0.000060     YES
 RMS     Displacement     0.000011     0.000040     YES
 Predicted change in Energy=-4.745065D-10
 Optimization completed.
    -- Stationary point found.
                           ----------------------------
                           !   Optimized Parameters   !
                           ! (Angstroms and Degrees)  !
 --------------------------                            --------------------------
 ! Name  Definition              Value          Derivative Info.                !
 --------------------------------------------------------------------------------
 ! R1    R(1,2)                  1.3749         -DE/DX =    0.0                 !
 ! R2    R(1,5)                  1.3143         -DE/DX =    0.0                 !
 ! R3    R(1,13)                 0.9945         -DE/DX =    0.0                 !
 ! R4    R(2,3)                  1.3365         -DE/DX =    0.0                 !
 ! R5    R(2,7)                  1.0658         -DE/DX =    0.0                 !
 ! R6    R(3,4)                  1.3808         -DE/DX =    0.0                 !
 ! R7    R(3,8)                  1.0661         -DE/DX =    0.0                 !
 ! R8    R(4,5)                  1.3053         -DE/DX =    0.0                 !
 ! R9    R(4,6)                  1.4648         -DE/DX =    0.0                 !
 ! R10   R(5,9)                  1.0681         -DE/DX =    0.0                 !
 ! R11   R(6,10)                 1.0784         -DE/DX =    0.0                 !
 ! R12   R(6,11)                 1.0784         -DE/DX =    0.0                 !
 ! R13   R(6,12)                 1.0777         -DE/DX =    0.0                 !
 ! A1    A(2,1,5)              109.0003         -DE/DX =    0.0                 !
 ! A2    A(2,1,13)             126.1614         -DE/DX =    0.0                 !
 ! A3    A(5,1,13)             124.8382         -DE/DX =    0.0                 !
 ! A4    A(1,2,3)              106.3176         -DE/DX =    0.0                 !
 ! A5    A(1,2,7)              122.5231         -DE/DX =    0.0                 !
 ! A6    A(3,2,7)              131.1593         -DE/DX =    0.0                 !
 ! A7    A(2,3,4)              107.2815         -DE/DX =    0.0                 !
 ! A8    A(2,3,8)              130.7129         -DE/DX =    0.0                 !
 ! A9    A(4,3,8)              122.0056         -DE/DX =    0.0                 !
 ! A10   A(3,4,5)              108.3772         -DE/DX =    0.0                 !
 ! A11   A(3,4,6)              125.4006         -DE/DX =    0.0                 !
 ! A12   A(5,4,6)              126.2222         -DE/DX =    0.0                 !
 ! A13   A(1,5,4)              109.0234         -DE/DX =    0.0                 !
 ! A14   A(1,5,9)              125.3726         -DE/DX =    0.0                 !
 ! A15   A(4,5,9)              125.6039         -DE/DX =    0.0                 !
 ! A16   A(4,6,10)             109.2218         -DE/DX =    0.0                 !
 ! A17   A(4,6,11)             109.2218         -DE/DX =    0.0                 !
 ! A18   A(4,6,12)             108.8741         -DE/DX =    0.0                 !
 ! A19   A(10,6,11)            110.2172         -DE/DX =    0.0                 !
 ! A20   A(10,6,12)            109.6412         -DE/DX =    0.0                 !
 ! A21   A(11,6,12)            109.6412         -DE/DX =    0.0                 !
 ! D1    D(5,1,2,3)              0.0            -DE/DX =    0.0                 !
 ! D2    D(5,1,2,7)            180.0            -DE/DX =    0.0                 !
 ! D3    D(13,1,2,3)           180.0            -DE/DX =    0.0                 !
 ! D4    D(13,1,2,7)             0.0            -DE/DX =    0.0                 !
 ! D5    D(2,1,5,4)              0.0            -DE/DX =    0.0                 !
 ! D6    D(2,1,5,9)            180.0            -DE/DX =    0.0                 !
 ! D7    D(13,1,5,4)           180.0            -DE/DX =    0.0                 !
 ! D8    D(13,1,5,9)             0.0            -DE/DX =    0.0                 !
 ! D9    D(1,2,3,4)              0.0            -DE/DX =    0.0                 !
 ! D10   D(1,2,3,8)            180.0            -DE/DX =    0.0                 !
 ! D11   D(7,2,3,4)            180.0            -DE/DX =    0.0                 !
 ! D12   D(7,2,3,8)              0.0            -DE/DX =    0.0                 !
 ! D13   D(2,3,4,5)              0.0            -DE/DX =    0.0                 !
 ! D14   D(2,3,4,6)            180.0            -DE/DX =    0.0                 !
 ! D15   D(8,3,4,5)            180.0            -DE/DX =    0.0                 !
 ! D16   D(8,3,4,6)              0.0            -DE/DX =    0.0                 !
 ! D17   D(3,4,5,1)              0.0            -DE/DX =    0.0                 !
 ! D18   D(3,4,5,9)            180.0            -DE/DX =    0.0                 !
 ! D19   D(6,4,5,1)            180.0            -DE/DX =    0.0                 !
 ! D20   D(6,4,5,9)              0.0            -DE/DX =    0.0                 !
 ! D21   D(3,4,6,10)            60.3038         -DE/DX =    0.0                 !
 ! D22   D(3,4,6,11)           -60.3038         -DE/DX =    0.0                 !
 ! D23   D(3,4,6,12)           180.0            -DE/DX =    0.0                 !
 ! D24   D(5,4,6,10)          -119.6962         -DE/DX =    0.0                 !
 ! D25   D(5,4,6,11)           119.6962         -DE/DX =    0.0                 !
 ! D26   D(5,4,6,12)             0.0            -DE/DX =    0.0                 !
 --------------------------------------------------------------------------------
 Lowest energy point so far.  Saving SCF results.
 Largest change from initial coordinates is atom    7       0.000 Angstoms.
 GradGradGradGradGradGradGradGradGradGradGradGradGradGradGradGradGradGrad

 Leave Link  103 at Tue Sep 30 17:00:50 2025, MaxMem=  4294967296 cpu:               3.0 elap:               0.2
 (Enter /software/sse/easybuild/prefix/software/Gaussian/16.C.01-avx2-nsc1/g16/l202.exe)
                          Input orientation:                          
 ---------------------------------------------------------------------
 Center     Atomic      Atomic             Coordinates (Angstroms)
 Number     Number       Type             X           Y           Z
 ---------------------------------------------------------------------
      1          7           0        1.478470   -0.451610    0.000000
      2          6           0        1.317740    0.913880    0.000000
      3          6           0        0.000000    1.136860    0.000000
      4          7           0       -0.624410   -0.094680    0.000000
      5          6           0        0.294300   -1.021860    0.000000
      6          6           0       -2.073020   -0.311560    0.000000
      7          1           0        2.143220    1.588000    0.000000
      8          1           0       -0.550800    2.049620    0.000000
      9          1           0        0.115090   -2.074820    0.000000
     10          1           0       -2.498840    0.134770   -0.884550
     11          1           0       -2.498840    0.134770    0.884550
     12          1           0       -2.266810   -1.371680    0.000000
     13          1           0        2.344480   -0.940540    0.000000
 ---------------------------------------------------------------------
                    Distance matrix (angstroms):
                    1          2          3          4          5
     1  N    0.000000
     2  C    1.374917   0.000000
     3  C    2.170048   1.336473   0.000000
     4  N    2.132956   2.188410   1.380789   0.000000
     5  C    1.314323   2.189639   2.178689   1.305255   0.000000
     6  C    3.554250   3.605407   2.528899   1.464755   2.471585
     7  H    2.145204   1.065765   2.190187   3.239010   3.198417
     8  H    3.220883   2.186629   1.066073   2.145563   3.185621
     9  H    2.119815   3.221598   3.213741   2.113721   1.068102
    10  H    4.116463   3.994462   2.833869   2.085321   3.149897
    11  H    4.116463   3.994462   2.833869   2.085321   3.149897
    12  H    3.856637   4.251210   3.381006   2.080434   2.584890
    13  H    0.994498   2.119686   3.132440   3.087035   2.051792
                    6          7          8          9         10
     6  C    0.000000
     7  H    4.624393   0.000000
     8  H    2.809328   2.733283   0.000000
     9  H    2.810144   4.186832   4.177848   0.000000
    10  H    1.078407   4.943989   2.871226   3.535159   0.000000
    11  H    1.078407   4.943989   2.871226   3.535159   1.769100
    12  H    1.077687   5.311127   3.827530   2.483516   1.762288
    13  H    4.462054   2.536537   4.162175   2.501354   5.039491
                   11         12         13
    11  H    0.000000
    12  H    1.762288   0.000000
    13  H    5.039491   4.631401   0.000000
 Stoichiometry    C4H7N2(1+)
 Framework group  CS[SG(C4H5N2),X(H2)]
 Deg. of freedom    22
 Full point group                 CS      NOp   2
 RotChk:  IX=0 Diff= 1.75D-16
 Largest Abelian subgroup         CS      NOp   2
 Largest concise Abelian subgroup CS      NOp   2
                         Standard orientation:                         
 ---------------------------------------------------------------------
 Center     Atomic      Atomic             Coordinates (Angstroms)
 Number     Number       Type             X           Y           Z
 ---------------------------------------------------------------------
      1          7           0        0.668155   -1.394056    0.000000
      2          6           0       -0.705999   -1.439853    0.000000
      3          6           0       -1.124012   -0.170434    0.000000
      4          7           0        0.000000    0.631548    0.000000
      5          6           0        1.054432   -0.137778    0.000000
      6          6           0       -0.002743    2.096301    0.000000
      7          1           0       -1.248747   -2.357067    0.000000
      8          1           0       -2.109031    0.237302    0.000000
      9          1           0        2.068626    0.197264    0.000000
     10          1           0       -0.507867    2.450396    0.884550
     11          1           0       -0.507867    2.450396   -0.884550
     12          1           0        1.016343    2.446832    0.000000
     13          1           0        1.281389   -2.176979    0.000000
 ---------------------------------------------------------------------
 Rotational constants (GHZ):           9.0416830           3.5830285           2.6078943
 Leave Link  202 at Tue Sep 30 17:00:50 2025, MaxMem=  4294967296 cpu:               0.1 elap:               0.0
 (Enter /software/sse/easybuild/prefix/software/Gaussian/16.C.01-avx2-nsc1/g16/l9999.exe)

 Test job not archived.
 1\1\NSC-N1297\FOpt\RHF\Aug-CC-pVTZ\C4H7N2(1+)\X_DAVVA\30-Sep-2025\0\\#
 P HF/aug-cc-pvtz Opt=tight Pop=(MK,Hirshfeld) iop(6/33=2) iop(6/42=6) 
 maxdisk=128GB\\1-methylimidazolium\\1,1\N,1.47847,-0.45161,0.\C,1.3177
 4,0.91388,0.\C,0.,1.13686,0.\N,-0.62441,-0.09468,0.\C,0.2943,-1.02186,
 0.\C,-2.07302,-0.31156,0.\H,2.14322,1.588,0.\H,-0.5508,2.04962,0.\H,0.
 11509,-2.07482,0.\H,-2.49884,0.13477,-0.88455\H,-2.49884,0.13477,0.884
 55\H,-2.26681,-1.37168,0.\H,2.34448,-0.94054,0.\\Version=ES64L-G16RevC
 .01\State=1-A'\HF=-264.3321026\RMSD=5.104e-09\RMSF=2.719e-06\Dipole=0.
 3107871,-0.5599119,0.\Quadrupole=6.8182856,1.2979399,-8.1162255,-0.540
 8427,0.,0.\PG=CS [SG(C4H5N2),X(H2)]\\@


 THE CHYMISTS ARE A STRANGE CLASS OF MORTALS IMPELLED
 BY AN ALMOST INSANE IMPULSE TO SEEK THEIR PLEASURE
 AMONG SMOKE AND VAPOR, SOOT AND FLAME, POISONS AND
 POVERTY; YET AMONG ALL THESE EVILS I SEEM TO LIVE
 SO SWEETLY, THAT I MAY DIE IF I WOULD CHANGE PLACES
 WITH THE PERSIAN KING.
   --  JOHANN JOACHIM BECHER, 1635-1682
 ACTA LABORATORII CHYMICA MONACENSIS, 1669
 Job cpu time:       0 days  0 hours 31 minutes  7.2 seconds.
 Elapsed time:       0 days  0 hours  1 minutes 58.0 seconds.
 File lengths (MBytes):  RWF=    103 Int=      0 D2E=      0 Chk=     20 Scr=      1
 Normal termination of Gaussian 16 at Tue Sep 30 17:00:50 2025.
