 Entering Gaussian System, Link 0=/software/sse/easybuild/prefix/software/Gaussian/16.C.01-avx2-nsc1/g16/g16.orig
 Input=1-methylimidazolium.wrap
 Output=1-methylimidazolium.log
 Initial command:
 /software/sse/easybuild/prefix/software/Gaussian/16.C.01-avx2-nsc1/g16/l1.exe "/scratch/local/Gau-1918049.inp" -scrdir="/scratch/local/"
 Entering Link 1 = /software/sse/easybuild/prefix/software/Gaussian/16.C.01-avx2-nsc1/g16/l1.exe PID=   1918050.
  
 Copyright (c) 1988-2019, Gaussian, Inc.  All Rights Reserved.
  
 This is part of the Gaussian(R) 16 program.  It is based on
 the Gaussian(R) 09 system (copyright 2009, Gaussian, Inc.),
 the Gaussian(R) 03 system (copyright 2003, Gaussian, Inc.),
 the Gaussian(R) 98 system (copyright 1998, Gaussian, Inc.),
 the Gaussian(R) 94 system (copyright 1995, Gaussian, Inc.),
 the Gaussian 92(TM) system (copyright 1992, Gaussian, Inc.),
 the Gaussian 90(TM) system (copyright 1990, Gaussian, Inc.),
 the Gaussian 88(TM) system (copyright 1988, Gaussian, Inc.),
 the Gaussian 86(TM) system (copyright 1986, Carnegie Mellon
 University), and the Gaussian 82(TM) system (copyright 1983,
 Carnegie Mellon University). Gaussian is a federally registered
 trademark of Gaussian, Inc.
  
 This software contains proprietary and confidential information,
 including trade secrets, belonging to Gaussian, Inc.
  
 This software is provided under written license and may be
 used, copied, transmitted, or stored only in accord with that
 written license.
  
 The following legend is applicable only to US Government
 contracts under FAR:
  
                    RESTRICTED RIGHTS LEGEND
  
 Use, reproduction and disclosure by the US Government is
 subject to restrictions as set forth in subparagraphs (a)
 and (c) of the Commercial Computer Software - Restricted
 Rights clause in FAR 52.227-19.
  
 Gaussian, Inc.
 340 Quinnipiac St., Bldg. 40, Wallingford CT 06492
  
  
 ---------------------------------------------------------------
 Warning -- This program may not be used in any manner that
 competes with the business of Gaussian, Inc. or will provide
 assistance to any competitor of Gaussian, Inc.  The licensee
 of this program is prohibited from giving any competitor of
 Gaussian, Inc. access to this program.  By using this program,
 the user acknowledges that Gaussian, Inc. is engaged in the
 business of creating and licensing software in the field of
 computational chemistry and represents and warrants to the
 licensee that it is not a competitor of Gaussian, Inc. and that
 it will not use this program in any manner prohibited above.
 ---------------------------------------------------------------
  

 Cite this work as:
 Gaussian 16, Revision C.01,
 M. J. Frisch, G. W. Trucks, H. B. Schlegel, G. E. Scuseria, 
 M. A. Robb, J. R. Cheeseman, G. Scalmani, V. Barone, 
 G. A. Petersson, H. Nakatsuji, X. Li, M. Caricato, A. V. Marenich, 
 J. Bloino, B. G. Janesko, R. Gomperts, B. Mennucci, H. P. Hratchian, 
 J. V. Ortiz, A. F. Izmaylov, J. L. Sonnenberg, D. Williams-Young, 
 F. Ding, F. Lipparini, F. Egidi, J. Goings, B. Peng, A. Petrone, 
 T. Henderson, D. Ranasinghe, V. G. Zakrzewski, J. Gao, N. Rega, 
 G. Zheng, W. Liang, M. Hada, M. Ehara, K. Toyota, R. Fukuda, 
 J. Hasegawa, M. Ishida, T. Nakajima, Y. Honda, O. Kitao, H. Nakai, 
 T. Vreven, K. Throssell, J. A. Montgomery, Jr., J. E. Peralta, 
 F. Ogliaro, M. J. Bearpark, J. J. Heyd, E. N. Brothers, K. N. Kudin, 
 V. N. Staroverov, T. A. Keith, R. Kobayashi, J. Normand, 
 K. Raghavachari, A. P. Rendell, J. C. Burant, S. S. Iyengar, 
 J. Tomasi, M. Cossi, J. M. Millam, M. Klene, C. Adamo, R. Cammi, 
 J. W. Ochterski, R. L. Martin, K. Morokuma, O. Farkas, 
 J. B. Foresman, and D. J. Fox, Gaussian, Inc., Wallingford CT, 2019.
 
 ******************************************
 Gaussian 16:  ES64L-G16RevC.01  3-Jul-2019
                28-Sep-2025 
 ******************************************
 %mem=12000MB
 %nprocshared=8
 Will use up to    8 processors via shared memory.
 %chk=water19.chk
 ----------------------------------------------------------------------
 #P HF/aug-cc-pvtz Opt=(Redundant, calcall, verytight) symm=(loose,foll
 ow) Pop=(MK,Hirshfeld,ReadRadii) iop(6/33=2) iop(6/42=6) Polar Freq ma
 xdisk=128GB
 ----------------------------------------------------------------------
 1/7=1,10=4,18=20,19=15,38=1/1,3;
 2/9=110,12=2,17=4,18=3,40=1/2;
 3/5=16,6=1,7=10,11=9,25=1,30=1,71=2,140=1/1,2,3;
 4//1;
 5/5=2,38=5,98=1/2;
 8/6=4,10=90,11=11/1;
 11/6=1,8=1,9=11,15=111,16=1/1,2,10;
 10/6=1/2;
 6/7=2,8=2,9=2,10=2,15=8,18=1,20=101,28=1,33=2,42=6,79=1/1,2;
 7/10=1,25=1/1,2,3,16;
 1/7=1,10=4,18=20,19=15/3(3);
 2/9=110,15=5/2;
 7/8=1,9=1,25=1,44=-1/16;
 99//99;
 2/9=110,15=5/2;
 3/5=16,6=1,7=10,11=9,25=1,30=1,71=2,140=1/1,2,3;
 4/5=5,16=3,69=1/1;
 5/5=2,38=5,98=1/2;
 8/6=4,10=90,11=11/1;
 11/6=1,8=1,9=11,15=111,16=1/1,2,10;
 10/6=1/2;
 7/10=1,25=1/1,2,3,16;
 1/7=1,10=4,18=20,19=15/3(-8);
 2/9=110,15=5/2;
 6/7=2,8=2,9=2,10=2,15=8,18=1,19=2,20=101,28=1,33=2,42=6,79=1/1,2;
 7/8=1,9=1,25=1,44=-1/16;
 99//99;
 Leave Link    1 at Sun Sep 28 20:46:06 2025, MaxMem=  1572864000 cpu:               0.4 elap:               0.1
 (Enter /software/sse/easybuild/prefix/software/Gaussian/16.C.01-avx2-nsc1/g16/l101.exe)
 -------------------
 1-methylimidazolium
 -------------------
 Symbolic Z-matrix:
 Charge =  1 Multiplicity = 1
 N                    -0.7147   -1.4487    0. 
 C                     0.6615   -1.472     0. 
 C                     1.1032   -0.196     0. 
 N                     0.0022    0.6625    0. 
 C                    -1.1037   -0.1495    0. 
 C                     0.0173    2.1018    0. 
 H                     1.219    -2.3952    0. 
 H                     2.1138    0.1816    0. 
 H                    -2.1281    0.1985    0. 
 H                     1.0409    2.4917    0. 
 H                    -0.4915    2.4909    0.8882 
 H                    -0.4915    2.4909   -0.8882 
 H                    -1.3209   -2.2516    0. 
 
 ITRead=  0  0  0  0  0  0  0  0  0  0  0  0  0
 MicOpt= -1 -1 -1 -1 -1 -1 -1 -1 -1 -1 -1 -1 -1
 NAtoms=     13 NQM=       13 NQMF=       0 NMMI=      0 NMMIF=      0
                NMic=       0 NMicF=      0.
                    Isotopes and Nuclear Properties:
 (Nuclear quadrupole moments (NQMom) in fm**2, nuclear magnetic moments (NMagM)
  in nuclear magnetons)

  Atom         1           2           3           4           5           6           7           8           9          10
 IAtWgt=          14          12          12          14          12          12           1           1           1           1
 AtmWgt=  14.0030740  12.0000000  12.0000000  14.0030740  12.0000000  12.0000000   1.0078250   1.0078250   1.0078250   1.0078250
 NucSpn=           2           0           0           2           0           0           1           1           1           1
 AtZEff=  -0.0000000  -0.0000000  -0.0000000  -0.0000000  -0.0000000  -0.0000000  -0.0000000  -0.0000000  -0.0000000  -0.0000000
 NQMom=    2.0440000   0.0000000   0.0000000   2.0440000   0.0000000   0.0000000   0.0000000   0.0000000   0.0000000   0.0000000
 NMagM=    0.4037610   0.0000000   0.0000000   0.4037610   0.0000000   0.0000000   2.7928460   2.7928460   2.7928460   2.7928460
 AtZNuc=   7.0000000   6.0000000   6.0000000   7.0000000   6.0000000   6.0000000   1.0000000   1.0000000   1.0000000   1.0000000

  Atom        11          12          13
 IAtWgt=           1           1           1
 AtmWgt=   1.0078250   1.0078250   1.0078250
 NucSpn=           1           1           1
 AtZEff=  -0.0000000  -0.0000000  -0.0000000
 NQMom=    0.0000000   0.0000000   0.0000000
 NMagM=    2.7928460   2.7928460   2.7928460
 AtZNuc=   1.0000000   1.0000000   1.0000000
 Leave Link  101 at Sun Sep 28 20:46:06 2025, MaxMem=  1572864000 cpu:               1.9 elap:               0.3
 (Enter /software/sse/easybuild/prefix/software/Gaussian/16.C.01-avx2-nsc1/g16/l103.exe)

 GradGradGradGradGradGradGradGradGradGradGradGradGradGradGradGradGradGrad
 Berny optimization.
 Initialization pass.
                           ----------------------------
                           !    Initial Parameters    !
                           ! (Angstroms and Degrees)  !
 --------------------------                            --------------------------
 ! Name  Definition              Value          Derivative Info.                !
 --------------------------------------------------------------------------------
 ! R1    R(1,2)                  1.3764         calculate D2E/DX2 analytically  !
 ! R2    R(1,5)                  1.3562         calculate D2E/DX2 analytically  !
 ! R3    R(1,13)                 1.006          calculate D2E/DX2 analytically  !
 ! R4    R(2,3)                  1.3503         calculate D2E/DX2 analytically  !
 ! R5    R(2,7)                  1.0785         calculate D2E/DX2 analytically  !
 ! R6    R(3,4)                  1.3961         calculate D2E/DX2 analytically  !
 ! R7    R(3,8)                  1.0788         calculate D2E/DX2 analytically  !
 ! R8    R(4,5)                  1.372          calculate D2E/DX2 analytically  !
 ! R9    R(4,6)                  1.4394         calculate D2E/DX2 analytically  !
 ! R10   R(5,9)                  1.0819         calculate D2E/DX2 analytically  !
 ! R11   R(6,10)                 1.0953         calculate D2E/DX2 analytically  !
 ! R12   R(6,11)                 1.0951         calculate D2E/DX2 analytically  !
 ! R13   R(6,12)                 1.0951         calculate D2E/DX2 analytically  !
 ! A1    A(2,1,5)              107.6385         calculate D2E/DX2 analytically  !
 ! A2    A(2,1,13)             126.0833         calculate D2E/DX2 analytically  !
 ! A3    A(5,1,13)             126.2782         calculate D2E/DX2 analytically  !
 ! A4    A(1,2,3)              108.1238         calculate D2E/DX2 analytically  !
 ! A5    A(1,2,7)              122.0968         calculate D2E/DX2 analytically  !
 ! A6    A(3,2,7)              129.7794         calculate D2E/DX2 analytically  !
 ! A7    A(2,3,4)              108.8514         calculate D2E/DX2 analytically  !
 ! A8    A(2,3,8)              129.5815         calculate D2E/DX2 analytically  !
 ! A9    A(4,3,8)              121.5672         calculate D2E/DX2 analytically  !
 ! A10   A(3,4,5)              105.7671         calculate D2E/DX2 analytically  !
 ! A11   A(3,4,6)              127.3441         calculate D2E/DX2 analytically  !
 ! A12   A(5,4,6)              126.8888         calculate D2E/DX2 analytically  !
 ! A13   A(1,5,4)              109.6192         calculate D2E/DX2 analytically  !
 ! A14   A(1,5,9)              125.4317         calculate D2E/DX2 analytically  !
 ! A15   A(4,5,9)              124.9491         calculate D2E/DX2 analytically  !
 ! A16   A(4,6,10)             111.4534         calculate D2E/DX2 analytically  !
 ! A17   A(4,6,11)             110.5134         calculate D2E/DX2 analytically  !
 ! A18   A(4,6,12)             110.5134         calculate D2E/DX2 analytically  !
 ! A19   A(10,6,11)            107.9216         calculate D2E/DX2 analytically  !
 ! A20   A(10,6,12)            107.9216         calculate D2E/DX2 analytically  !
 ! A21   A(11,6,12)            108.4053         calculate D2E/DX2 analytically  !
 ! D1    D(5,1,2,3)              0.0            calculate D2E/DX2 analytically  !
 ! D2    D(5,1,2,7)            180.0            calculate D2E/DX2 analytically  !
 ! D3    D(13,1,2,3)           180.0            calculate D2E/DX2 analytically  !
 ! D4    D(13,1,2,7)             0.0            calculate D2E/DX2 analytically  !
 ! D5    D(2,1,5,4)              0.0            calculate D2E/DX2 analytically  !
 ! D6    D(2,1,5,9)            180.0            calculate D2E/DX2 analytically  !
 ! D7    D(13,1,5,4)           180.0            calculate D2E/DX2 analytically  !
 ! D8    D(13,1,5,9)             0.0            calculate D2E/DX2 analytically  !
 ! D9    D(1,2,3,4)              0.0            calculate D2E/DX2 analytically  !
 ! D10   D(1,2,3,8)            180.0            calculate D2E/DX2 analytically  !
 ! D11   D(7,2,3,4)            180.0            calculate D2E/DX2 analytically  !
 ! D12   D(7,2,3,8)              0.0            calculate D2E/DX2 analytically  !
 ! D13   D(2,3,4,5)              0.0            calculate D2E/DX2 analytically  !
 ! D14   D(2,3,4,6)            180.0            calculate D2E/DX2 analytically  !
 ! D15   D(8,3,4,5)            180.0            calculate D2E/DX2 analytically  !
 ! D16   D(8,3,4,6)              0.0            calculate D2E/DX2 analytically  !
 ! D17   D(3,4,5,1)              0.0            calculate D2E/DX2 analytically  !
 ! D18   D(3,4,5,9)            180.0            calculate D2E/DX2 analytically  !
 ! D19   D(6,4,5,1)            180.0            calculate D2E/DX2 analytically  !
 ! D20   D(6,4,5,9)              0.0            calculate D2E/DX2 analytically  !
 ! D21   D(3,4,6,10)             0.0            calculate D2E/DX2 analytically  !
 ! D22   D(3,4,6,11)          -120.0025         calculate D2E/DX2 analytically  !
 ! D23   D(3,4,6,12)           120.0025         calculate D2E/DX2 analytically  !
 ! D24   D(5,4,6,10)           180.0            calculate D2E/DX2 analytically  !
 ! D25   D(5,4,6,11)            59.9975         calculate D2E/DX2 analytically  !
 ! D26   D(5,4,6,12)           -59.9975         calculate D2E/DX2 analytically  !
 --------------------------------------------------------------------------------
 Trust Radius=3.00D-01 FncErr=1.00D-07 GrdErr=1.00D-07 EigMax=2.50D+02 EigMin=1.00D-04
 Number of steps in this run=     70 maximum allowed number of steps=    100.
 GradGradGradGradGradGradGradGradGradGradGradGradGradGradGradGradGradGrad

 Leave Link  103 at Sun Sep 28 20:46:06 2025, MaxMem=  1572864000 cpu:               0.1 elap:               0.0
 (Enter /software/sse/easybuild/prefix/software/Gaussian/16.C.01-avx2-nsc1/g16/l202.exe)
                          Input orientation:                          
 ---------------------------------------------------------------------
 Center     Atomic      Atomic             Coordinates (Angstroms)
 Number     Number       Type             X           Y           Z
 ---------------------------------------------------------------------
      1          7           0       -0.714700   -1.448700    0.000000
      2          6           0        0.661500   -1.472000    0.000000
      3          6           0        1.103200   -0.196000    0.000000
      4          7           0        0.002200    0.662500    0.000000
      5          6           0       -1.103700   -0.149500    0.000000
      6          6           0        0.017300    2.101800    0.000000
      7          1           0        1.219000   -2.395200    0.000000
      8          1           0        2.113800    0.181600    0.000000
      9          1           0       -2.128100    0.198500    0.000000
     10          1           0        1.040900    2.491700    0.000000
     11          1           0       -0.491500    2.490900    0.888200
     12          1           0       -0.491500    2.490900   -0.888200
     13          1           0       -1.320900   -2.251600    0.000000
 ---------------------------------------------------------------------
                    Distance matrix (angstroms):
                    1          2          3          4          5
     1  N    0.000000
     2  C    1.376397   0.000000
     3  C    2.207718   1.350287   0.000000
     4  N    2.229599   2.234002   1.396146   0.000000
     5  C    1.356186   2.205660   2.207390   1.371991   0.000000
     6  C    3.625172   3.631396   2.541469   1.439379   2.514954
     7  H    2.152918   1.078473   2.202247   3.290917   3.230805
     8  H    3.264704   2.200811   1.078839   2.165668   3.234491
     9  H    2.170476   3.251529   3.255293   2.180246   1.081896
    10  H    4.313802   3.981816   2.688422   2.103538   3.402241
    11  H    4.044647   4.221716   3.248292   2.091814   2.852262
    12  H    4.044647   4.221716   3.248292   2.091814   2.852262
    13  H    1.006045   2.130184   3.178325   3.200402   2.113291
                    6          7          8          9         10
     6  C    0.000000
     7  H    4.654792   0.000000
     8  H    2.842970   2.727740   0.000000
     9  H    2.867977   4.234425   4.241934   0.000000
    10  H    1.095344   4.890144   2.547092   3.911691   0.000000
    11  H    1.095069   5.252493   3.592959   2.953381   1.771200
    12  H    1.095069   5.252493   3.592959   2.953381   1.771200
    13  H    4.554434   2.543956   4.209231   2.579644   5.298773
                   11         12         13
    11  H    0.000000
    12  H    1.776400   0.000000
    13  H    4.895724   4.895724   0.000000
 Stoichiometry    C4H7N2(1+)
 Framework group  CS[SG(C4H5N2),X(H2)]
 Deg. of freedom    22
 Full point group                 CS      NOp   2
 Largest Abelian subgroup         CS      NOp   2
 Largest concise Abelian subgroup CS      NOp   2
                         Standard orientation:                         
 ---------------------------------------------------------------------
 Center     Atomic      Atomic             Coordinates (Angstroms)
 Number     Number       Type             X           Y           Z
 ---------------------------------------------------------------------
      1          7           0       -0.641851   -1.459163    0.000000
      2          6           0        0.734313   -1.433819    0.000000
      3          6           0        1.130648   -0.143008    0.000000
      4          7           0       -0.000000    0.676051    0.000000
      5          6           0       -1.076517   -0.174520    0.000000
      6          6           0       -0.035768    2.114986    0.000000
      7          1           0        1.324087   -2.336743    0.000000
      8          1           0        2.127274    0.270067    0.000000
      9          1           0       -2.112574    0.137065    0.000000
     10          1           0        0.973415    2.540812    0.000000
     11          1           0       -0.558000    2.485864    0.888200
     12          1           0       -0.558000    2.485864   -0.888200
     13          1           0       -1.219301   -2.282982    0.000000
 ---------------------------------------------------------------------
 Rotational constants (GHZ):           8.8668852           3.4509328           2.5235764
 Leave Link  202 at Sun Sep 28 20:46:06 2025, MaxMem=  1572864000 cpu:               0.0 elap:               0.0
 (Enter /software/sse/easybuild/prefix/software/Gaussian/16.C.01-avx2-nsc1/g16/l301.exe)
 Standard basis: Aug-CC-pVTZ (5D, 7F)
 Ernie: Thresh=  0.10000D-02 Tol=  0.10000D-05 Strict=F.
 Ernie:  18 primitive shells out of 257 were deleted.
 There are   337 symmetry adapted cartesian basis functions of A'  symmetry.
 There are   168 symmetry adapted cartesian basis functions of A"  symmetry.
 There are   283 symmetry adapted basis functions of A'  symmetry.
 There are   154 symmetry adapted basis functions of A"  symmetry.
   437 basis functions,   621 primitive gaussians,   505 cartesian basis functions
    22 alpha electrons       22 beta electrons
       nuclear repulsion energy       235.5051975341 Hartrees.
 IExCor=    0 DFT=F Ex=HF Corr=None ExCW=0 ScaHFX=  1.000000
 ScaDFX=  1.000000  1.000000  1.000000  1.000000 ScalE2=  1.000000  1.000000
 IRadAn=      5 IRanWt=     -1 IRanGd=            0 ICorTp=0 IEmpDi=  4
 NAtoms=   13 NActive=   13 NUniq=   12 SFac= 1.17D+00 NAtFMM=   60 NAOKFM=F Big=F
 Integral buffers will be    131072 words long.
 Raffenetti 1 integral format.
 Two-electron integral symmetry is turned on.
 Leave Link  301 at Sun Sep 28 20:46:06 2025, MaxMem=  1572864000 cpu:               0.4 elap:               0.1
 (Enter /software/sse/easybuild/prefix/software/Gaussian/16.C.01-avx2-nsc1/g16/l302.exe)
 NPDir=0 NMtPBC=     1 NCelOv=     1 NCel=       1 NClECP=     1 NCelD=      1
         NCelK=      1 NCelE2=     1 NClLst=     1 CellRange=     0.0.
 One-electron integrals computed using PRISM.
 One-electron integral symmetry used in STVInt
 NBasis=   437 RedAO= T EigKep=  3.24D-06  NBF=   283   154
 NBsUse=   437 1.00D-06 EigRej= -1.00D+00 NBFU=   283   154
 Leave Link  302 at Sun Sep 28 20:46:07 2025, MaxMem=  1572864000 cpu:               1.5 elap:               0.2
 (Enter /software/sse/easybuild/prefix/software/Gaussian/16.C.01-avx2-nsc1/g16/l303.exe)
 DipDrv:  MaxL=1.
 Leave Link  303 at Sun Sep 28 20:46:07 2025, MaxMem=  1572864000 cpu:               0.4 elap:               0.1
 (Enter /software/sse/easybuild/prefix/software/Gaussian/16.C.01-avx2-nsc1/g16/l401.exe)
 ExpMin= 2.53D-02 ExpMax= 1.14D+04 ExpMxC= 3.89D+02 IAcc=3 IRadAn=         5 AccDes= 0.00D+00
 Harris functional with IExCor=  205 and IRadAn=       5 diagonalized for initial guess.
 HarFok:  IExCor=  205 AccDes= 0.00D+00 IRadAn=         5 IDoV= 1 UseB2=F ITyADJ=14
 ICtDFT=  3500011 ScaDFX=  1.000000  1.000000  1.000000  1.000000
 FoFCou: FMM=F IPFlag=           0 FMFlag=      100000 FMFlg1=           0
         NFxFlg=           0 DoJE=T BraDBF=F KetDBF=T FulRan=T
         wScrn=  0.000000 ICntrl=       500 IOpCl=  0 I1Cent=   200000004 NGrid=           0
         NMat0=    1 NMatS0=      1 NMatT0=    0 NMatD0=    1 NMtDS0=    0 NMtDT0=    0
 Petite list used in FoFCou.
 Harris En= -264.691615192974    
 JPrj=0 DoOrth=F DoCkMO=F.
 Initial guess orbital symmetries:
       Occupied  (A') (A') (A') (A') (A') (A') (A') (A') (A') (A')
                 (A') (A') (A') (A') (A") (A') (A') (A') (A") (A')
                 (A") (A")
       Virtual   (A") (A") (A') (A') (A') (A') (A') (A') (A") (A')
                 (A") (A') (A") (A') (A') (A') (A') (A') (A") (A')
                 (A') (A") (A') (A') (A") (A') (A') (A') (A') (A')
                 (A") (A') (A") (A') (A") (A') (A') (A') (A') (A')
                 (A") (A') (A') (A') (A") (A") (A') (A') (A") (A")
                 (A') (A') (A") (A') (A') (A') (A') (A") (A') (A')
                 (A") (A') (A") (A') (A") (A") (A') (A') (A") (A')
                 (A') (A') (A") (A') (A') (A') (A') (A') (A") (A')
                 (A") (A') (A') (A') (A") (A') (A') (A') (A") (A')
                 (A") (A') (A') (A") (A") (A') (A") (A') (A') (A")
                 (A") (A') (A') (A') (A") (A') (A') (A') (A") (A')
                 (A') (A") (A') (A") (A') (A') (A") (A") (A') (A")
                 (A') (A') (A") (A') (A') (A') (A") (A') (A") (A')
                 (A") (A') (A') (A") (A') (A") (A') (A') (A") (A')
                 (A") (A') (A") (A') (A") (A') (A") (A') (A') (A")
                 (A') (A') (A') (A') (A") (A') (A") (A') (A") (A')
                 (A") (A') (A') (A") (A') (A') (A") (A") (A') (A')
                 (A") (A') (A') (A') (A") (A') (A") (A') (A") (A')
                 (A") (A') (A") (A') (A") (A') (A') (A') (A") (A")
                 (A') (A') (A") (A') (A') (A") (A') (A') (A") (A')
                 (A') (A") (A') (A") (A') (A") (A') (A') (A') (A')
                 (A') (A") (A") (A') (A') (A") (A') (A") (A') (A")
                 (A') (A') (A") (A') (A") (A') (A') (A') (A") (A')
                 (A") (A') (A') (A') (A') (A") (A") (A') (A') (A")
                 (A') (A") (A') (A') (A') (A") (A') (A') (A') (A")
                 (A") (A') (A') (A') (A') (A") (A') (A') (A") (A')
                 (A") (A') (A") (A') (A") (A') (A') (A") (A') (A')
                 (A") (A") (A') (A") (A') (A") (A") (A') (A") (A")
                 (A') (A') (A') (A') (A") (A") (A') (A') (A") (A')
                 (A") (A') (A') (A") (A') (A') (A') (A") (A") (A')
                 (A") (A') (A') (A") (A') (A") (A') (A") (A") (A')
                 (A") (A') (A') (A') (A') (A') (A') (A") (A') (A")
                 (A') (A") (A') (A") (A') (A") (A') (A") (A') (A')
                 (A") (A') (A') (A') (A") (A') (A') (A') (A") (A')
                 (A') (A") (A') (A") (A') (A") (A') (A") (A") (A')
                 (A') (A') (A") (A') (A") (A') (A") (A') (A') (A')
                 (A') (A") (A") (A") (A') (A') (A") (A') (A") (A')
                 (A") (A') (A") (A') (A") (A") (A') (A') (A') (A")
                 (A") (A') (A") (A') (A') (A") (A') (A') (A') (A")
                 (A') (A") (A') (A') (A') (A') (A') (A") (A') (A')
                 (A') (A') (A') (A') (A') (A') (A') (A') (A') (A')
                 (A') (A') (A') (A') (A')
 The electronic state of the initial guess is 1-A'.
 Leave Link  401 at Sun Sep 28 20:46:07 2025, MaxMem=  1572864000 cpu:               4.6 elap:               0.6
 (Enter /software/sse/easybuild/prefix/software/Gaussian/16.C.01-avx2-nsc1/g16/l502.exe)
 Integral symmetry usage will be decided dynamically.
 Closed shell SCF:
 Using DIIS extrapolation, IDIIS=  1040.
 NGot=  1572864000 LenX=  1572344335 LenY=  1572088805
 Requested convergence on RMS density matrix=1.00D-08 within 128 cycles.
 Requested convergence on MAX density matrix=1.00D-06.
 Requested convergence on             energy=1.00D-06.
 No special actions if energy rises.
 Fock matrices will be formed incrementally for  20 cycles.

 Cycle   1  Pass 1  IDiag  1:
 FoFJK:  IHMeth= 1 ICntrl=       0 DoSepK=F KAlg= 0 I1Cent=           0 FoldK=F
 IRaf= 990000000 NMat=       1 IRICut=       1 DoRegI=T DoRafI=F ISym2E= 1 IDoP0=0 IntGTp=1.
 FoFCou: FMM=F IPFlag=           0 FMFlag=      100000 FMFlg1=           0
         NFxFlg=           0 DoJE=F BraDBF=F KetDBF=F FulRan=T
         wScrn=  0.000000 ICntrl=         0 IOpCl=  0 I1Cent=           0 NGrid=           0
         NMat0=    1 NMatS0=      1 NMatT0=    0 NMatD0=    1 NMtDS0=    0 NMtDT0=    0
 Petite list used in FoFCou.
 E= -264.112925713314    
 DIIS: error= 2.02D-02 at cycle   1 NSaved=   1.
 NSaved= 1 IEnMin= 1 EnMin= -264.112925713314     IErMin= 1 ErrMin= 2.02D-02
 ErrMax= 2.02D-02  0.00D+00 EMaxC= 1.00D-01 BMatC= 5.04D-01 BMatP= 5.04D-01
 IDIUse=3 WtCom= 7.98D-01 WtEn= 2.02D-01
 Coeff-Com:  0.100D+01
 Coeff-En:   0.100D+01
 Coeff:      0.100D+01
 Gap=     0.435 Goal=   None    Shift=    0.000
 GapD=    0.435 DampG=2.000 DampE=0.500 DampFc=1.0000 IDamp=-1.
 RMSDP=1.80D-03 MaxDP=1.40D-01              OVMax= 1.10D-01

 Cycle   2  Pass 1  IDiag  1:
 RMSU=  1.77D-03    CP:  9.58D-01
 E= -264.298625402815     Delta-E=       -0.185699689501 Rises=F Damp=F
 DIIS: error= 8.33D-03 at cycle   2 NSaved=   2.
 NSaved= 2 IEnMin= 2 EnMin= -264.298625402815     IErMin= 2 ErrMin= 8.33D-03
 ErrMax= 8.33D-03  0.00D+00 EMaxC= 1.00D-01 BMatC= 2.59D-02 BMatP= 5.04D-01
 IDIUse=3 WtCom= 9.17D-01 WtEn= 8.33D-02
 Coeff-Com:  0.630D-01 0.937D+00
 Coeff-En:   0.000D+00 0.100D+01
 Coeff:      0.577D-01 0.942D+00
 Gap=     0.475 Goal=   None    Shift=    0.000
 RMSDP=4.48D-04 MaxDP=1.80D-02 DE=-1.86D-01 OVMax= 6.08D-02

 Cycle   3  Pass 1  IDiag  1:
 RMSU=  4.34D-04    CP:  9.68D-01  1.05D+00
 E= -264.316433197954     Delta-E=       -0.017807795138 Rises=F Damp=F
 DIIS: error= 3.35D-03 at cycle   3 NSaved=   3.
 NSaved= 3 IEnMin= 3 EnMin= -264.316433197954     IErMin= 3 ErrMin= 3.35D-03
 ErrMax= 3.35D-03  0.00D+00 EMaxC= 1.00D-01 BMatC= 4.35D-03 BMatP= 2.59D-02
 IDIUse=3 WtCom= 9.67D-01 WtEn= 3.35D-02
 Coeff-Com: -0.233D-01 0.260D+00 0.763D+00
 Coeff-En:   0.000D+00 0.000D+00 0.100D+01
 Coeff:     -0.225D-01 0.251D+00 0.771D+00
 Gap=     0.446 Goal=   None    Shift=    0.000
 RMSDP=1.27D-04 MaxDP=4.68D-03 DE=-1.78D-02 OVMax= 1.96D-02

 Cycle   4  Pass 1  IDiag  1:
 RMSU=  9.84D-05    CP:  9.68D-01  1.07D+00  8.53D-01
 E= -264.320323789522     Delta-E=       -0.003890591568 Rises=F Damp=F
 DIIS: error= 1.07D-03 at cycle   4 NSaved=   4.
 NSaved= 4 IEnMin= 4 EnMin= -264.320323789522     IErMin= 4 ErrMin= 1.07D-03
 ErrMax= 1.07D-03  0.00D+00 EMaxC= 1.00D-01 BMatC= 1.69D-04 BMatP= 4.35D-03
 IDIUse=3 WtCom= 9.89D-01 WtEn= 1.07D-02
 Coeff-Com: -0.685D-02 0.336D-01 0.185D+00 0.788D+00
 Coeff-En:   0.000D+00 0.000D+00 0.000D+00 0.100D+01
 Coeff:     -0.678D-02 0.332D-01 0.183D+00 0.791D+00
 Gap=     0.443 Goal=   None    Shift=    0.000
 RMSDP=3.02D-05 MaxDP=1.81D-03 DE=-3.89D-03 OVMax= 7.63D-03

 Cycle   5  Pass 1  IDiag  1:
 RMSU=  2.66D-05    CP:  9.68D-01  1.07D+00  8.85D-01  9.99D-01
 E= -264.320552694291     Delta-E=       -0.000228904769 Rises=F Damp=F
 DIIS: error= 4.12D-04 at cycle   5 NSaved=   5.
 NSaved= 5 IEnMin= 5 EnMin= -264.320552694291     IErMin= 5 ErrMin= 4.12D-04
 ErrMax= 4.12D-04  0.00D+00 EMaxC= 1.00D-01 BMatC= 2.27D-05 BMatP= 1.69D-04
 IDIUse=3 WtCom= 9.96D-01 WtEn= 4.12D-03
 Coeff-Com:  0.235D-02-0.293D-01-0.876D-01 0.506D-01 0.106D+01
 Coeff-En:   0.000D+00 0.000D+00 0.000D+00 0.000D+00 0.100D+01
 Coeff:      0.234D-02-0.292D-01-0.872D-01 0.504D-01 0.106D+01
 Gap=     0.443 Goal=   None    Shift=    0.000
 RMSDP=1.75D-05 MaxDP=8.42D-04 DE=-2.29D-04 OVMax= 4.28D-03

 Cycle   6  Pass 1  IDiag  1:
 RMSU=  1.10D-05    CP:  9.68D-01  1.08D+00  8.97D-01  1.10D+00  1.26D+00
 E= -264.320613927540     Delta-E=       -0.000061233249 Rises=F Damp=F
 DIIS: error= 1.86D-04 at cycle   6 NSaved=   6.
 NSaved= 6 IEnMin= 6 EnMin= -264.320613927540     IErMin= 6 ErrMin= 1.86D-04
 ErrMax= 1.86D-04  0.00D+00 EMaxC= 1.00D-01 BMatC= 4.63D-06 BMatP= 2.27D-05
 IDIUse=3 WtCom= 9.98D-01 WtEn= 1.86D-03
 Coeff-Com:  0.138D-02-0.110D-01-0.427D-01-0.761D-01 0.158D+00 0.970D+00
 Coeff-En:   0.000D+00 0.000D+00 0.000D+00 0.000D+00 0.000D+00 0.100D+01
 Coeff:      0.137D-02-0.109D-01-0.427D-01-0.760D-01 0.158D+00 0.970D+00
 Gap=     0.443 Goal=   None    Shift=    0.000
 RMSDP=7.65D-06 MaxDP=4.43D-04 DE=-6.12D-05 OVMax= 2.18D-03

 Cycle   7  Pass 1  IDiag  1:
 RMSU=  4.36D-06    CP:  9.68D-01  1.08D+00  9.00D-01  1.13D+00  1.40D+00
                    CP:  1.30D+00
 E= -264.320628568843     Delta-E=       -0.000014641303 Rises=F Damp=F
 DIIS: error= 1.09D-04 at cycle   7 NSaved=   7.
 NSaved= 7 IEnMin= 7 EnMin= -264.320628568843     IErMin= 7 ErrMin= 1.09D-04
 ErrMax= 1.09D-04  0.00D+00 EMaxC= 1.00D-01 BMatC= 1.03D-06 BMatP= 4.63D-06
 IDIUse=3 WtCom= 9.99D-01 WtEn= 1.09D-03
 Coeff-Com: -0.388D-03 0.607D-02 0.153D-01-0.900D-02-0.258D+00 0.911D-01
 Coeff-Com:  0.116D+01
 Coeff-En:   0.000D+00 0.000D+00 0.000D+00 0.000D+00 0.000D+00 0.000D+00
 Coeff-En:   0.100D+01
 Coeff:     -0.388D-03 0.606D-02 0.153D-01-0.899D-02-0.258D+00 0.910D-01
 Coeff:      0.116D+01
 Gap=     0.443 Goal=   None    Shift=    0.000
 RMSDP=5.04D-06 MaxDP=3.90D-04 DE=-1.46D-05 OVMax= 1.87D-03

 Cycle   8  Pass 1  IDiag  1:
 RMSU=  2.33D-06    CP:  9.68D-01  1.08D+00  9.01D-01  1.14D+00  1.48D+00
                    CP:  1.60D+00  1.46D+00
 E= -264.320633126332     Delta-E=       -0.000004557488 Rises=F Damp=F
 DIIS: error= 2.10D-05 at cycle   8 NSaved=   8.
 NSaved= 8 IEnMin= 8 EnMin= -264.320633126332     IErMin= 8 ErrMin= 2.10D-05
 ErrMax= 2.10D-05  0.00D+00 EMaxC= 1.00D-01 BMatC= 1.57D-07 BMatP= 1.03D-06
 IDIUse=1 WtCom= 1.00D+00 WtEn= 0.00D+00
 Coeff-Com: -0.239D-03 0.216D-02 0.692D-02 0.188D-01-0.338D-01-0.221D+00
 Coeff-Com:  0.178D-01 0.121D+01
 Coeff:     -0.239D-03 0.216D-02 0.692D-02 0.188D-01-0.338D-01-0.221D+00
 Coeff:      0.178D-01 0.121D+01
 Gap=     0.443 Goal=   None    Shift=    0.000
 RMSDP=2.31D-06 MaxDP=1.42D-04 DE=-4.56D-06 OVMax= 7.17D-04

 Cycle   9  Pass 1  IDiag  1:
 RMSU=  7.59D-07    CP:  9.68D-01  1.08D+00  9.01D-01  1.15D+00  1.50D+00
                    CP:  1.73D+00  1.76D+00  1.29D+00
 E= -264.320633686122     Delta-E=       -0.000000559790 Rises=F Damp=F
 DIIS: error= 4.69D-06 at cycle   9 NSaved=   9.
 NSaved= 9 IEnMin= 9 EnMin= -264.320633686122     IErMin= 9 ErrMin= 4.69D-06
 ErrMax= 4.69D-06  0.00D+00 EMaxC= 1.00D-01 BMatC= 4.29D-09 BMatP= 1.57D-07
 IDIUse=1 WtCom= 1.00D+00 WtEn= 0.00D+00
 Coeff-Com:  0.198D-05-0.152D-03-0.487D-03 0.224D-02 0.130D-01-0.163D-01
 Coeff-Com: -0.445D-01 0.562D-01 0.990D+00
 Coeff:      0.198D-05-0.152D-03-0.487D-03 0.224D-02 0.130D-01-0.163D-01
 Coeff:     -0.445D-01 0.562D-01 0.990D+00
 Gap=     0.443 Goal=   None    Shift=    0.000
 RMSDP=2.46D-07 MaxDP=1.12D-05 DE=-5.60D-07 OVMax= 3.23D-05

 Cycle  10  Pass 1  IDiag  1:
 RMSU=  1.66D-07    CP:  9.68D-01  1.08D+00  9.01D-01  1.15D+00  1.50D+00
                    CP:  1.73D+00  1.77D+00  1.33D+00  1.14D+00
 E= -264.320633694168     Delta-E=       -0.000000008046 Rises=F Damp=F
 DIIS: error= 1.67D-06 at cycle  10 NSaved=  10.
 NSaved=10 IEnMin=10 EnMin= -264.320633694168     IErMin=10 ErrMin= 1.67D-06
 ErrMax= 1.67D-06  0.00D+00 EMaxC= 1.00D-01 BMatC= 7.70D-10 BMatP= 4.29D-09
 IDIUse=1 WtCom= 1.00D+00 WtEn= 0.00D+00
 Coeff-Com:  0.233D-04-0.239D-03-0.780D-03-0.182D-02 0.469D-02 0.204D-01
 Coeff-Com: -0.522D-02-0.138D+00 0.150D+00 0.971D+00
 Coeff:      0.233D-04-0.239D-03-0.780D-03-0.182D-02 0.469D-02 0.204D-01
 Coeff:     -0.522D-02-0.138D+00 0.150D+00 0.971D+00
 Gap=     0.443 Goal=   None    Shift=    0.000
 RMSDP=1.00D-07 MaxDP=4.30D-06 DE=-8.05D-09 OVMax= 1.97D-05

 Cycle  11  Pass 1  IDiag  1:
 RMSU=  5.83D-08    CP:  9.68D-01  1.08D+00  9.01D-01  1.15D+00  1.50D+00
                    CP:  1.73D+00  1.78D+00  1.34D+00  1.21D+00  1.13D+00
 E= -264.320633695584     Delta-E=       -0.000000001416 Rises=F Damp=F
 DIIS: error= 3.52D-07 at cycle  11 NSaved=  11.
 NSaved=11 IEnMin=11 EnMin= -264.320633695584     IErMin=11 ErrMin= 3.52D-07
 ErrMax= 3.52D-07  0.00D+00 EMaxC= 1.00D-01 BMatC= 4.37D-11 BMatP= 7.70D-10
 IDIUse=1 WtCom= 1.00D+00 WtEn= 0.00D+00
 Coeff-Com: -0.933D-06 0.208D-04 0.820D-04 0.464D-05-0.112D-02-0.727D-03
 Coeff-Com:  0.525D-02 0.546D-02-0.851D-01-0.677D-01 0.114D+01
 Coeff:     -0.933D-06 0.208D-04 0.820D-04 0.464D-05-0.112D-02-0.727D-03
 Coeff:      0.525D-02 0.546D-02-0.851D-01-0.677D-01 0.114D+01
 Gap=     0.443 Goal=   None    Shift=    0.000
 RMSDP=2.63D-08 MaxDP=1.29D-06 DE=-1.42D-09 OVMax= 5.72D-06

 Cycle  12  Pass 1  IDiag  1:
 RMSU=  1.90D-08    CP:  9.68D-01  1.08D+00  9.01D-01  1.15D+00  1.50D+00
                    CP:  1.73D+00  1.78D+00  1.34D+00  1.22D+00  1.18D+00
                    CP:  1.26D+00
 E= -264.320633695711     Delta-E=       -0.000000000128 Rises=F Damp=F
 DIIS: error= 2.08D-07 at cycle  12 NSaved=  12.
 NSaved=12 IEnMin=12 EnMin= -264.320633695711     IErMin=12 ErrMin= 2.08D-07
 ErrMax= 2.08D-07  0.00D+00 EMaxC= 1.00D-01 BMatC= 8.18D-12 BMatP= 4.37D-11
 IDIUse=1 WtCom= 1.00D+00 WtEn= 0.00D+00
 Coeff-Com: -0.210D-05 0.230D-04 0.813D-04 0.154D-03-0.574D-03-0.220D-02
 Coeff-Com:  0.142D-02 0.130D-01-0.269D-01-0.999D-01 0.162D+00 0.953D+00
 Coeff:     -0.210D-05 0.230D-04 0.813D-04 0.154D-03-0.574D-03-0.220D-02
 Coeff:      0.142D-02 0.130D-01-0.269D-01-0.999D-01 0.162D+00 0.953D+00
 Gap=     0.443 Goal=   None    Shift=    0.000
 RMSDP=9.94D-09 MaxDP=4.52D-07 DE=-1.28D-10 OVMax= 2.55D-06

 SCF Done:  E(RHF) =  -264.320633696     A.U. after   12 cycles
            NFock= 12  Conv=0.99D-08     -V/T= 2.0025
 KE= 2.636695181354D+02 PE=-1.077710079483D+03 EE= 3.142147301182D+02
 Leave Link  502 at Sun Sep 28 20:48:17 2025, MaxMem=  1572864000 cpu:            1028.8 elap:             129.2
 (Enter /software/sse/easybuild/prefix/software/Gaussian/16.C.01-avx2-nsc1/g16/l801.exe)
 Range of M.O.s used for correlation:     1   437
 NBasis=   437 NAE=    22 NBE=    22 NFC=     0 NFV=     0
 NROrb=    437 NOA=    22 NOB=    22 NVA=   415 NVB=   415

 **** Warning!!: The largest alpha MO coefficient is  0.94318157D+02

 Leave Link  801 at Sun Sep 28 20:48:17 2025, MaxMem=  1572864000 cpu:               0.2 elap:               0.0
 (Enter /software/sse/easybuild/prefix/software/Gaussian/16.C.01-avx2-nsc1/g16/l1101.exe)
 Using compressed storage, NAtomX=    13.
 Will process     14 centers per pass.
 Leave Link 1101 at Sun Sep 28 20:48:17 2025, MaxMem=  1572864000 cpu:               2.6 elap:               0.4
 (Enter /software/sse/easybuild/prefix/software/Gaussian/16.C.01-avx2-nsc1/g16/l1102.exe)
 Symmetrizing basis deriv contribution to polar:
 IMax=3 JMax=2 DiffMx= 0.00D+00
 Leave Link 1102 at Sun Sep 28 20:48:17 2025, MaxMem=  1572864000 cpu:               0.3 elap:               0.1
 (Enter /software/sse/easybuild/prefix/software/Gaussian/16.C.01-avx2-nsc1/g16/l1110.exe)
 Forming Gx(P) for the SCF density, NAtomX=    13.
 Integral derivatives from FoFJK, PRISM(SPDF).
 Do as many integral derivatives as possible in FoFJK.
 G2DrvN: MDV=    1572862525.
 G2DrvN: will do    14 centers at a time, making    1 passes.
 Calling FoFCou, ICntrl=  3107 FMM=F I1Cent=   0 AccDes= 0.00D+00.
 FoFJK:  IHMeth= 1 ICntrl=    3107 DoSepK=F KAlg= 0 I1Cent=           0 FoldK=F
 IRaf=         0 NMat=       1 IRICut=       1 DoRegI=T DoRafI=F ISym2E= 1 IDoP0=0 IntGTp=1.
 FoFCou: FMM=F IPFlag=           0 FMFlag=      100000 FMFlg1=           0
         NFxFlg=           0 DoJE=F BraDBF=F KetDBF=F FulRan=T
         wScrn=  0.000000 ICntrl=      3107 IOpCl=  0 I1Cent=           0 NGrid=           0
         NMat0=    1 NMatS0=      1 NMatT0=    0 NMatD0=    1 NMtDS0=    0 NMtDT0=    0
 Petite list used in FoFCou.
 End of G2Drv F.D. properties file   721 does not exist.
 End of G2Drv F.D. properties file   722 does not exist.
 End of G2Drv F.D. properties file   788 does not exist.
 Leave Link 1110 at Sun Sep 28 20:50:01 2025, MaxMem=  1572864000 cpu:             824.6 elap:             103.6
 (Enter /software/sse/easybuild/prefix/software/Gaussian/16.C.01-avx2-nsc1/g16/l1002.exe)
 Minotr:  Closed shell wavefunction.
          IDoAtm=1111111111111
          Direct CPHF calculation.
          Differentiating once with respect to electric field.
                with respect to dipole field.
          Differentiating once with respect to nuclear coordinates.
          Using symmetry in CPHF.
          Requested convergence is 1.0D-08 RMS, and 1.0D-07 maximum.
          Secondary convergence is 1.0D-12 RMS, and 1.0D-12 maximum.
          NewPWx=T KeepS1=F KeepF1=F KeepIn=T MapXYZ=F SortEE=F KeepMc=T.
 Two-electron integrals replicated using symmetry.
          MDV=    1572864000 using IRadAn=       1.
          Solving linear equations simultaneously, MaxMat=     384.
 FoF2E skips out because all densities are zero.
 FoFJK:  IHMeth= 1 ICntrl=       0 DoSepK=F KAlg= 0 I1Cent=           0 FoldK=F
 IRaf= 990000000 NMat=      36 IRICut=      90 DoRegI=T DoRafI=T ISym2E= 2 IDoP0=3 IntGTp=3.
 FoFCou: FMM=F IPFlag=           0 FMFlag=      100000 FMFlg1=           0
         NFxFlg=           0 DoJE=F BraDBF=F KetDBF=F FulRan=T
         wScrn=  0.000000 ICntrl=         0 IOpCl=  0 I1Cent=           0 NGrid=           0
         NMat0=   36 NMatS0=     36 NMatT0=    0 NMatD0=   36 NMtDS0=    0 NMtDT0=    0
 Integrals replicated using symmetry in FoFCou.
 Raff kept on since  98.34% of shell-pairs survive, threshold=   0.20 IRatSp=98.
          There are    39 degrees of freedom in the 1st order CPHF.  IDoFFX=4 NUNeed=    39.
     39 vectors produced by pass  0 Test12= 2.34D-14 2.56D-09 XBig12= 1.96D+01 2.26D+00.
 AX will form    39 AO Fock derivatives at one time.
     39 vectors produced by pass  1 Test12= 2.34D-14 2.56D-09 XBig12= 9.14D-01 1.62D-01.
     39 vectors produced by pass  2 Test12= 2.34D-14 2.56D-09 XBig12= 1.60D-02 2.38D-02.
     39 vectors produced by pass  3 Test12= 2.34D-14 2.56D-09 XBig12= 1.63D-04 2.77D-03.
     39 vectors produced by pass  4 Test12= 2.34D-14 2.56D-09 XBig12= 1.50D-06 1.66D-04.
     39 vectors produced by pass  5 Test12= 2.34D-14 2.56D-09 XBig12= 9.87D-09 1.34D-05.
     37 vectors produced by pass  6 Test12= 2.34D-14 2.56D-09 XBig12= 7.53D-11 1.14D-06.
     11 vectors produced by pass  7 Test12= 2.34D-14 2.56D-09 XBig12= 5.31D-13 8.31D-08.
      3 vectors produced by pass  8 Test12= 2.34D-14 2.56D-09 XBig12= 4.04D-15 7.39D-09.
 InvSVY:  IOpt=1 It=  1 EMax= 1.78D-15
 Solved reduced A of dimension   285 with    39 vectors.
 FullF1:  Do perturbations      1 to      39.
 Isotropic polarizability for W=    0.000000       53.63 Bohr**3.
 End of Minotr F.D. properties file   721 does not exist.
 End of Minotr F.D. properties file   722 does not exist.
 End of Minotr F.D. properties file   788 does not exist.
 Leave Link 1002 at Sun Sep 28 20:57:13 2025, MaxMem=  1572864000 cpu:            3439.0 elap:             431.6
 (Enter /software/sse/easybuild/prefix/software/Gaussian/16.C.01-avx2-nsc1/g16/l601.exe)
 Copying SCF densities to generalized density rwf, IOpCl= 0 IROHF=0.
 SCF density gives NOpUse=  2 NOpAll=  2.

 **********************************************************************

            Population analysis using the SCF Density.

 **********************************************************************

 Orbital symmetries:
 BldTbl:  Degeneracy threshold= 1.00D-02
       Occupied  (A') (A') (A') (A') (A') (A') (A') (A') (A') (A')
                 (A') (A') (A') (A') (A") (A') (A') (A') (A") (A')
                 (A") (A")
       Virtual   (A') (A") (A') (A') (A') (A') (A") (A') (A") (A")
                 (A') (A') (A") (A') (A') (A') (A') (A') (A") (A')
                 (A") (A') (A') (A') (A") (A') (A') (A") (A') (A')
                 (A") (A') (A') (A") (A') (A') (A') (A') (A') (A")
                 (A') (A') (A') (A") (A") (A') (A") (A') (A') (A")
                 (A') (A') (A") (A') (A") (A') (A") (A') (A') (A')
                 (A") (A") (A') (A') (A') (A") (A') (A') (A') (A")
                 (A') (A') (A') (A") (A') (A') (A') (A") (A") (A')
                 (A') (A') (A') (A') (A") (A') (A') (A") (A') (A')
                 (A') (A") (A") (A') (A') (A") (A') (A") (A') (A')
                 (A") (A") (A') (A') (A') (A") (A') (A") (A') (A')
                 (A') (A") (A') (A") (A') (A") (A') (A") (A") (A')
                 (A') (A') (A') (A") (A') (A") (A') (A") (A') (A')
                 (A') (A") (A') (A") (A') (A") (A') (A') (A") (A')
                 (A') (A") (A') (A") (A") (A') (A') (A") (A') (A')
                 (A") (A') (A') (A') (A") (A') (A") (A') (A") (A')
                 (A') (A") (A') (A') (A") (A") (A') (A") (A') (A")
                 (A') (A') (A') (A') (A") (A') (A') (A") (A') (A")
                 (A') (A') (A") (A') (A") (A") (A') (A') (A") (A')
                 (A') (A") (A') (A") (A') (A") (A') (A") (A') (A')
                 (A") (A') (A') (A') (A") (A') (A") (A') (A') (A')
                 (A") (A') (A") (A') (A') (A") (A') (A") (A") (A')
                 (A') (A") (A') (A") (A') (A') (A') (A') (A") (A')
                 (A') (A") (A') (A") (A') (A') (A') (A") (A') (A")
                 (A') (A") (A') (A') (A') (A") (A') (A') (A") (A')
                 (A') (A") (A') (A') (A") (A') (A') (A') (A') (A")
                 (A") (A') (A") (A') (A") (A') (A') (A") (A') (A")
                 (A') (A") (A') (A") (A') (A") (A") (A') (A") (A')
                 (A") (A') (A') (A") (A") (A') (A') (A') (A") (A")
                 (A') (A') (A") (A') (A') (A') (A") (A') (A') (A")
                 (A") (A') (A') (A') (A") (A") (A") (A') (A") (A')
                 (A") (A') (A') (A') (A') (A') (A') (A") (A") (A')
                 (A") (A') (A') (A") (A") (A') (A') (A') (A") (A")
                 (A') (A') (A') (A') (A') (A") (A') (A") (A') (A")
                 (A') (A') (A") (A') (A") (A') (A") (A') (A") (A')
                 (A') (A") (A') (A") (A') (A") (A') (A') (A') (A')
                 (A") (A') (A") (A') (A") (A') (A") (A') (A") (A')
                 (A') (A") (A') (A") (A") (A') (A") (A') (A') (A")
                 (A") (A') (A") (A') (A') (A') (A") (A') (A') (A")
                 (A') (A") (A') (A') (A') (A') (A') (A") (A') (A')
                 (A') (A') (A') (A') (A') (A') (A') (A') (A') (A')
                 (A') (A') (A') (A') (A')
 The electronic state is 1-A'.
 Alpha  occ. eigenvalues --  -15.84537 -15.84317 -11.54667 -11.46330 -11.46154
 Alpha  occ. eigenvalues --  -11.44579  -1.57188  -1.43358  -1.23600  -1.17335
 Alpha  occ. eigenvalues --   -1.04545  -1.01294  -0.96964  -0.85480  -0.84487
 Alpha  occ. eigenvalues --   -0.81874  -0.80423  -0.79235  -0.75774  -0.72733
 Alpha  occ. eigenvalues --   -0.62405  -0.53276
 Alpha virt. eigenvalues --   -0.08979  -0.08208  -0.07273  -0.06760  -0.04810
 Alpha virt. eigenvalues --   -0.04679  -0.04517  -0.03557  -0.03341  -0.02190
 Alpha virt. eigenvalues --   -0.01622  -0.01197  -0.00665   0.00095   0.00525
 Alpha virt. eigenvalues --    0.01280   0.01884   0.02379   0.03163   0.03575
 Alpha virt. eigenvalues --    0.03579   0.04683   0.05098   0.05335   0.05855
 Alpha virt. eigenvalues --    0.07349   0.07910   0.08669   0.09400   0.10481
 Alpha virt. eigenvalues --    0.10723   0.11138   0.12864   0.12878   0.13095
 Alpha virt. eigenvalues --    0.15213   0.16789   0.17416   0.18146   0.18157
 Alpha virt. eigenvalues --    0.18526   0.19095   0.19441   0.19821   0.20546
 Alpha virt. eigenvalues --    0.21690   0.21826   0.22409   0.22837   0.24284
 Alpha virt. eigenvalues --    0.24810   0.25993   0.26918   0.27115   0.27583
 Alpha virt. eigenvalues --    0.27913   0.28613   0.28687   0.29682   0.30158
 Alpha virt. eigenvalues --    0.30723   0.30926   0.31469   0.31948   0.33402
 Alpha virt. eigenvalues --    0.33852   0.34354   0.35182   0.35385   0.36512
 Alpha virt. eigenvalues --    0.36556   0.37271   0.37973   0.38154   0.38472
 Alpha virt. eigenvalues --    0.39715   0.40942   0.41406   0.42970   0.44722
 Alpha virt. eigenvalues --    0.45688   0.46744   0.47498   0.48684   0.48825
 Alpha virt. eigenvalues --    0.50903   0.51475   0.52842   0.52874   0.54899
 Alpha virt. eigenvalues --    0.57080   0.57311   0.58268   0.58796   0.59945
 Alpha virt. eigenvalues --    0.61467   0.62802   0.63246   0.63778   0.64864
 Alpha virt. eigenvalues --    0.65696   0.67424   0.68744   0.70986   0.72096
 Alpha virt. eigenvalues --    0.72161   0.73033   0.73987   0.74644   0.75939
 Alpha virt. eigenvalues --    0.76598   0.76781   0.77903   0.78243   0.78970
 Alpha virt. eigenvalues --    0.79242   0.79855   0.80053   0.81449   0.81867
 Alpha virt. eigenvalues --    0.83437   0.83891   0.84673   0.85864   0.86147
 Alpha virt. eigenvalues --    0.87168   0.88752   0.88830   0.89975   0.91890
 Alpha virt. eigenvalues --    0.93446   0.93681   0.94310   0.95443   0.96770
 Alpha virt. eigenvalues --    0.98142   0.99288   1.00184   1.00271   1.00642
 Alpha virt. eigenvalues --    1.02128   1.02788   1.03264   1.03544   1.03731
 Alpha virt. eigenvalues --    1.04941   1.07041   1.08244   1.09352   1.10295
 Alpha virt. eigenvalues --    1.10740   1.11371   1.14003   1.14506   1.15624
 Alpha virt. eigenvalues --    1.16723   1.18887   1.19080   1.20287   1.21317
 Alpha virt. eigenvalues --    1.22045   1.22425   1.23607   1.25706   1.27448
 Alpha virt. eigenvalues --    1.28447   1.29067   1.30243   1.30875   1.32586
 Alpha virt. eigenvalues --    1.32643   1.33411   1.37621   1.38073   1.38677
 Alpha virt. eigenvalues --    1.38951   1.42195   1.42495   1.46272   1.47002
 Alpha virt. eigenvalues --    1.48940   1.49679   1.49967   1.50732   1.51030
 Alpha virt. eigenvalues --    1.51463   1.52445   1.54592   1.57231   1.57527
 Alpha virt. eigenvalues --    1.59703   1.60955   1.63783   1.64076   1.64350
 Alpha virt. eigenvalues --    1.67743   1.67955   1.71086   1.71435   1.73198
 Alpha virt. eigenvalues --    1.75632   1.76000   1.77695   1.81538   1.81919
 Alpha virt. eigenvalues --    1.82791   1.82971   1.86579   1.88229   1.89705
 Alpha virt. eigenvalues --    1.91246   1.93514   1.94610   1.97889   1.99552
 Alpha virt. eigenvalues --    2.00771   2.01871   2.02872   2.03812   2.04642
 Alpha virt. eigenvalues --    2.06963   2.07411   2.08591   2.13471   2.13897
 Alpha virt. eigenvalues --    2.15870   2.17177   2.20106   2.21603   2.22826
 Alpha virt. eigenvalues --    2.24400   2.26638   2.29384   2.30841   2.31029
 Alpha virt. eigenvalues --    2.35918   2.36148   2.36156   2.40130   2.42465
 Alpha virt. eigenvalues --    2.46276   2.47285   2.48788   2.49653   2.55734
 Alpha virt. eigenvalues --    2.56848   2.57499   2.67433   2.69929   2.70767
 Alpha virt. eigenvalues --    2.83862   2.85821   2.89149   2.90174   2.95849
 Alpha virt. eigenvalues --    2.96154   3.01989   3.02519   3.11139   3.11555
 Alpha virt. eigenvalues --    3.17490   3.19449   3.22888   3.24754   3.26848
 Alpha virt. eigenvalues --    3.30116   3.32607   3.34876   3.35684   3.37346
 Alpha virt. eigenvalues --    3.38422   3.40272   3.40593   3.41683   3.43942
 Alpha virt. eigenvalues --    3.48934   3.51201   3.51922   3.51982   3.56247
 Alpha virt. eigenvalues --    3.57379   3.59414   3.60362   3.62118   3.63784
 Alpha virt. eigenvalues --    3.64224   3.67736   3.70588   3.71081   3.72566
 Alpha virt. eigenvalues --    3.73523   3.76604   3.77200   3.78110   3.79832
 Alpha virt. eigenvalues --    3.82070   3.83907   3.85985   3.89510   3.89681
 Alpha virt. eigenvalues --    3.90865   3.93820   3.93852   3.95842   3.95853
 Alpha virt. eigenvalues --    3.97125   3.99466   4.00824   4.01736   4.02279
 Alpha virt. eigenvalues --    4.06266   4.07767   4.09760   4.12215   4.12502
 Alpha virt. eigenvalues --    4.16937   4.19003   4.19546   4.22310   4.25426
 Alpha virt. eigenvalues --    4.25445   4.28125   4.31407   4.31676   4.34150
 Alpha virt. eigenvalues --    4.34260   4.40140   4.45512   4.46371   4.47872
 Alpha virt. eigenvalues --    4.49100   4.51575   4.52736   4.57775   4.58191
 Alpha virt. eigenvalues --    4.61107   4.63572   4.65836   4.68252   4.72701
 Alpha virt. eigenvalues --    4.74051   4.78460   4.79171   4.79388   4.83931
 Alpha virt. eigenvalues --    4.84167   4.87053   4.87802   4.92031   4.95062
 Alpha virt. eigenvalues --    4.96775   4.97517   5.02400   5.06771   5.06804
 Alpha virt. eigenvalues --    5.08277   5.08608   5.11084   5.16756   5.20886
 Alpha virt. eigenvalues --    5.24174   5.25388   5.30795   5.31175   5.36300
 Alpha virt. eigenvalues --    5.37071   5.41319   5.41585   5.44191   5.44720
 Alpha virt. eigenvalues --    5.49800   5.50097   5.54258   5.55242   5.58748
 Alpha virt. eigenvalues --    5.59752   5.62624   5.64583   5.67113   5.68904
 Alpha virt. eigenvalues --    5.75281   5.78504   5.85746   5.87233   5.90436
 Alpha virt. eigenvalues --    5.96312   5.97154   5.99989   6.06217   6.06980
 Alpha virt. eigenvalues --    6.10777   6.12841   6.20972   6.31888   6.34613
 Alpha virt. eigenvalues --    6.37017   6.49236   6.53088   6.57169   6.61482
 Alpha virt. eigenvalues --    6.64117   6.66485   6.75863   6.83822   6.84772
 Alpha virt. eigenvalues --    6.95079   7.03539   7.33105   7.65817  15.60738
 Alpha virt. eigenvalues --   16.45845  17.76423  18.57326  19.05997  19.78819
          Condensed to atoms (all electrons):
               1          2          3          4          5          6
     1  N    6.384233   0.297574  -0.090408  -0.237902   0.458922  -0.007186
     2  C    0.297574   6.613520  -0.283611  -0.135079  -0.245545  -0.010986
     3  C   -0.090408  -0.283611   6.725067   0.234464  -0.221613  -0.108136
     4  N   -0.237902  -0.135079   0.234464   6.236472   0.480454   0.209665
     5  C    0.458922  -0.245545  -0.221613   0.480454   6.210037  -0.195130
     6  C   -0.007186  -0.010986  -0.108136   0.209665  -0.195130   5.825326
     7  H   -0.028307   0.177044   0.030704   0.005773  -0.007861  -0.000371
     8  H    0.019840   0.014768   0.208487  -0.046926  -0.028597  -0.038356
     9  H   -0.019444  -0.014886  -0.026822   0.021502   0.178675   0.013578
    10  H   -0.004796  -0.005833   0.033619  -0.029796  -0.032470   0.350799
    11  H    0.000682   0.001755  -0.012400   0.030583   0.001102   0.371644
    12  H    0.000682   0.001755  -0.012400   0.030583   0.001102   0.371644
    13  H    0.472472  -0.085849   0.009698  -0.008433  -0.089127   0.002423
               7          8          9         10         11         12
     1  N   -0.028307   0.019840  -0.019444  -0.004796   0.000682   0.000682
     2  C    0.177044   0.014768  -0.014886  -0.005833   0.001755   0.001755
     3  C    0.030704   0.208487  -0.026822   0.033619  -0.012400  -0.012400
     4  N    0.005773  -0.046926   0.021502  -0.029796   0.030583   0.030583
     5  C   -0.007861  -0.028597   0.178675  -0.032470   0.001102   0.001102
     6  C   -0.000371  -0.038356   0.013578   0.350799   0.371644   0.371644
     7  H    0.221339  -0.008157  -0.001673  -0.000140   0.000031   0.000031
     8  H   -0.008157   0.247708  -0.003975   0.008960  -0.002551  -0.002551
     9  H   -0.001673  -0.003975   0.197688  -0.000222  -0.000246  -0.000246
    10  H   -0.000140   0.008960  -0.000222   0.272089   0.003290   0.003290
    11  H    0.000031  -0.002551  -0.000246   0.003290   0.252224   0.014238
    12  H    0.000031  -0.002551  -0.000246   0.003290   0.014238   0.252224
    13  H    0.011180  -0.000659   0.007142   0.000414  -0.000082  -0.000082
              13
     1  N    0.472472
     2  C   -0.085849
     3  C    0.009698
     4  N   -0.008433
     5  C   -0.089127
     6  C    0.002423
     7  H    0.011180
     8  H   -0.000659
     9  H    0.007142
    10  H    0.000414
    11  H   -0.000082
    12  H   -0.000082
    13  H    0.498652
 Mulliken charges:
               1
     1  N   -0.246362
     2  C   -0.324625
     3  C   -0.486649
     4  N    0.208642
     5  C   -0.509949
     6  C   -0.784914
     7  H    0.600408
     8  H    0.632009
     9  H    0.648931
    10  H    0.400796
    11  H    0.339732
    12  H    0.339732
    13  H    0.182250
 Sum of Mulliken charges =   1.00000
 Mulliken charges with hydrogens summed into heavy atoms:
               1
     1  N   -0.064112
     2  C    0.275783
     3  C    0.145359
     4  N    0.208642
     5  C    0.138982
     6  C    0.295346
 APT charges:
               1
     1  N   -0.358583
     2  C    0.028313
     3  C    0.054501
     4  N   -0.366809
     5  C    0.371340
     6  C    0.412786
     7  H    0.147875
     8  H    0.141231
     9  H    0.158290
    10  H    0.043792
    11  H    0.013007
    12  H    0.013007
    13  H    0.341249
 Sum of APT charges =   1.00000
 APT charges with hydrogens summed into heavy atoms:
               1
     1  N   -0.017334
     2  C    0.176188
     3  C    0.195733
     4  N   -0.366809
     5  C    0.529631
     6  C    0.482591
 DipInt: DoE/N= T F RetVal/Mat= T F Init=T NMatP=  1 IDeriv=0 Min/MaxMlt=  0  4
 Entering OneElI...
 OneElI was handed  1572214938 working-precision words.
 Multipole integrals L=0 to 4 MinM= 0 MaxM= 0.
 Requested accuracy = 0.1000D-12
 ShPair: Thresh= 1.00D-13 NBox=     0 BxSize= 0.00D+00 RnKept= 1.00D+01
         NSMCal=                10878 NSMKep=               10750
 PrmmSu-InSpLW:  IPartL=    0 NPrtUS=    1 NPrtUL=    1 DoSpLW=F IThBeg=    0 IThEnd=    0 NThAct=    1.
 PrSmSu:  IncTry=   512 NBBP=          10750 NTPThr=   100 NPartT=    1 Incr=         107 LDynOK=F GPUOK=F.
 PrsmSu:  NPrtUS=   1 ThrOK=F IAlg=2 LenDen=           0 ISkipM=0 DoSpLW=F IThBeg=    0 IThEnd=    0.
 Prism:   IPart=     0 DynPar=F LinDyn=F Incr=         107.
 PRISM was handed  1571473475 working-precision words and 10750 shell-pairs
 IPart=  0 NShTot=       10750 NBatch=         105 AvBLen=       102.4
 PrsmSu-ThDecC:  IPartSL=    0    0 NPrtUSL=    1    1 IThBeg=    0 IThEnd=    0 CPU=   -1 GPU=   -1 NThAct=    1.
 PrSmSu:  NxtVal=            108.
 Electronic moments (au):
        -44.00000000         -0.60886607         -0.29977498         -0.00000000
       -140.26646454       -322.73339135        -32.61345901          2.87593912
         -0.00000000          0.00000000        -28.06656131       -297.53872952
          0.00000000          2.05764748         80.02146112          0.00000000
          2.13322335        -21.96551800          0.00000000         -0.00000000
      -1220.63128492      -5296.02080428       -128.06672493         17.93778065
         -0.00000000         98.44580822          0.00000000         -0.00000000
          0.00000000       -716.22333292       -114.25195698       -324.38902791
          0.00000000         -0.00000000         27.83932547
 Electronic spatial extent (au):  <R**2>=            495.6133
 DipInt: DoE/N= F T RetVal/Mat= T F Init=T NMatP=  1 IDeriv=0 Min/MaxMlt=  0  4
 Nuclear    moments (au):
         45.00000000         -0.00000000         -0.00000000          0.00000000
        123.37574897        311.26018310          5.63442065         -1.37307397
          0.00000000         -0.00000000         20.19851995        282.98076023
          0.00000000         -7.74846113        -86.66508470         -0.00000000
         -5.94131037         26.46826539         -0.00000000          0.00000000
        861.66271951       4509.96211188         15.87334805         10.98300394
          0.00000000        -58.29010043         -0.00000000          0.00000000
         -0.00000000        521.51622715          6.26491544        124.33737481
         -0.00000000          0.00000000        -27.90991114
 Total      moments (au):
          1.00000000         -0.60886607         -0.29977498         -0.00000000
        -16.89071558        -11.47320825        -26.97903835          1.50286515
          0.00000000         -0.00000000         -7.86804136        -14.55796930
          0.00000000         -5.69081365         -6.64362358         -0.00000000
         -3.80808703          4.50274739         -0.00000000          0.00000000
       -358.96856541       -786.05869240       -112.19337687         28.92078460
          0.00000000         40.15570779         -0.00000000          0.00000000
         -0.00000000       -194.70710577       -107.98704154       -200.05165310
         -0.00000000          0.00000000         -0.07058567
 Charge=              1.0000 electrons
 Dipole moment (field-independent basis, Debye):
    X=             -1.5476    Y=             -0.7620    Z=             -0.0000  Tot=              1.7250
 Quadrupole moment (field-independent basis, Debye-Ang):
   XX=            -22.7186   YY=            -15.4319   ZZ=            -36.2877
   XY=              2.0214   XZ=              0.0000   YZ=             -0.0000
 Traceless Quadrupole moment (field-independent basis, Debye-Ang):
   XX=              2.0941   YY=              9.3809   ZZ=            -11.4750
   XY=              2.0214   XZ=              0.0000   YZ=             -0.0000
 Octapole moment (field-independent basis, Debye-Ang**2):
  XXX=             -5.6002  YYY=            -10.3618  ZZZ=              0.0000  XYY=             -4.0505
  XXY=             -4.7287  XXZ=             -0.0000  XZZ=             -2.7104  YZZ=              3.2049
  YYZ=             -0.0000  XYZ=              0.0000
 Hexadecapole moment (field-independent basis, Debye-Ang**3):
 XXXX=           -135.2048 YYYY=           -296.0674 ZZZZ=            -42.2574 XXXY=             10.8930
 XXXZ=              0.0000 YYYX=             15.1246 YYYZ=             -0.0000 ZZZX=              0.0000
 ZZZY=             -0.0000 XXYY=            -73.3360 XXZZ=            -40.6731 YYZZ=            -75.3490
 XXYZ=             -0.0000 YYXZ=              0.0000 ZZXY=             -0.0266
 N-N= 2.355051975341D+02 E-N=-1.077710061058D+03  KE= 2.636695181354D+02
 Symmetry A'   KE= 2.535279916470D+02
 Symmetry A"   KE= 1.014152648840D+01
 SetAtRh:  ITypeU=  23 NETotI=      -1 ICharg=  0 NETot=      45.
 StAtR1:  I=    1 I1=    1 IA=  7 C=   7.0 OKShel=TTT
                                                  SSP
                                                  223
 StAtR1:  I=    2 I1=    2 IA=  6 C=   6.0 OKShel=TTT
                                                  SSP
                                                  222
 StAtR1:  I=    3 I1=    3 IA=  6 C=   6.0 OKShel=TTT
                                                  SSP
                                                  222
 StAtR1:  I=    4 I1=    4 IA=  7 C=   7.0 OKShel=TTT
                                                  SSP
                                                  223
 StAtR1:  I=    5 I1=    5 IA=  6 C=   6.0 OKShel=TTT
                                                  SSP
                                                  222
 StAtR1:  I=    6 I1=    6 IA=  6 C=   6.0 OKShel=TTT
                                                  SSP
                                                  222
 StAtR1:  I=    7 I1=    7 IA=  1 C=   1.0 OKShel=T
                                                  S
                                                  1
 StAtR1:  I=    8 I1=    8 IA=  1 C=   1.0 OKShel=T
                                                  S
                                                  1
 StAtR1:  I=    9 I1=    9 IA=  1 C=   1.0 OKShel=T
                                                  S
                                                  1
 StAtR1:  I=   10 I1=   10 IA=  1 C=   1.0 OKShel=T
                                                  S
                                                  1
 StAtR1:  I=   11 I1=   11 IA=  1 C=   1.0 OKShel=T
                                                  S
                                                  1
 StAtR1:  I=   12 I1=   12 IA=  1 C=   1.0 OKShel=T
                                                  S
                                                  1
 StAtR1:  I=   13 I1=   13 IA=  1 C=   1.0 OKShel=T
                                                  S
                                                  1
          I=    1 IA=  7 I1=    1 NAtG=22 NE=   7.000 C=   7.000 Err= 6.08D-13
          I=    2 IA=  6 I1=    2 NAtG=23 NE=   6.000 C=   6.000 Err= 1.75D-11
          I=    3 IA=  6 I1=    3 NAtG=23 NE=   6.000 C=   6.000 Err= 1.75D-11
          I=    4 IA=  7 I1=    4 NAtG=22 NE=   7.000 C=   7.000 Err= 6.08D-13
          I=    5 IA=  6 I1=    5 NAtG=23 NE=   6.000 C=   6.000 Err= 1.75D-11
          I=    6 IA=  6 I1=    6 NAtG=23 NE=   6.000 C=   6.000 Err= 1.75D-11
          I=    7 IA=  1 I1=    7 NAtG=20 NE=   1.000 C=   1.000 Err= 2.80D-12
          I=    8 IA=  1 I1=    8 NAtG=20 NE=   1.000 C=   1.000 Err= 2.80D-12
          I=    9 IA=  1 I1=    9 NAtG=20 NE=   1.000 C=   1.000 Err= 2.80D-12
          I=   10 IA=  1 I1=   10 NAtG=20 NE=   1.000 C=   1.000 Err= 2.80D-12
          I=   11 IA=  1 I1=   11 NAtG=20 NE=   1.000 C=   1.000 Err= 2.80D-12
          I=   12 IA=  1 I1=   12 NAtG=20 NE=   1.000 C=   1.000 Err= 2.80D-12
          I=   13 IA=  1 I1=   13 NAtG=20 NE=   1.000 C=   1.000 Err= 2.80D-12
 Pruned (  99, 590) grid will be used in numerical quadrature.
 IPart=  0 IRanGd=          0 ScrnBf=T ScrnGd=T RCrit=4.00D+00 DoMicB=T.
 CutRad = 1000.00    CtRdIn =    0.00    XCrit =  15.00   ICut = 0
 Pruned (  99, 590) grid will be used in numerical quadrature.
 IPart=  2 IRanGd=          0 ScrnBf=T ScrnGd=T RCrit=4.00D+00 DoMicB=T.
 Pruned (  99, 590) grid will be used in numerical quadrature.
 CutRad = 1000.00    CtRdIn =    0.00    XCrit =  15.00   ICut = 0
 Pruned (  99, 590) grid will be used in numerical quadrature.
 IPart=  7 IRanGd=          0 ScrnBf=T ScrnGd=T RCrit=4.00D+00 DoMicB=T.
 CutRad = 1000.00    CtRdIn =    0.00    XCrit =  15.00   ICut = 0
 IPart=  4 IRanGd=          0 ScrnBf=T ScrnGd=T RCrit=4.00D+00 DoMicB=T.
 Pruned (  99, 590) grid will be used in numerical quadrature.
 CutRad = 1000.00    CtRdIn =    0.00    XCrit =  15.00   ICut = 0
 Pruned (  99, 590) grid will be used in numerical quadrature.
 IPart=  6 IRanGd=          0 ScrnBf=T ScrnGd=T RCrit=4.00D+00 DoMicB=T.
 Pruned (  99, 590) grid will be used in numerical quadrature.
 IPart=  1 IRanGd=          0 ScrnBf=T ScrnGd=T RCrit=4.00D+00 DoMicB=T.
 CutRad = 1000.00    CtRdIn =    0.00    XCrit =  15.00   ICut = 0
 IPart=  5 IRanGd=          0 ScrnBf=T ScrnGd=T RCrit=4.00D+00 DoMicB=T.
 CutRad = 1000.00    CtRdIn =    0.00    XCrit =  15.00   ICut = 0
 Pruned (  99, 590) grid will be used in numerical quadrature.
 CutRad = 1000.00    CtRdIn =    0.00    XCrit =  15.00   ICut = 0
 IPart=  3 IRanGd=          0 ScrnBf=T ScrnGd=T RCrit=4.00D+00 DoMicB=T.
 CutRad = 1000.00    CtRdIn =    0.00    XCrit =  15.00   ICut = 0
 Pruned (  99, 590) grid will be used in numerical quadrature.
 IPart=  0 Atom number   1 atomic number  7 has       23718 grid points.
 IPart=  0 Atom   1 batch    1 overlaps   13 atoms,   130 shells and    13 DB shells.   NGrid=      2408
 Symmetry reduced    86 angular points to    86 for atom    1.
 Pruned (  99, 590) grid will be used in numerical quadrature.
 IPart=  2 Atom number   1 atomic number  7 has       23718 grid points.
 Pruned (  99, 590) grid will be used in numerical quadrature.
 IPart=  2 Atom   1 batch    2 overlaps   13 atoms,   133 shells and    13 DB shells.   NGrid=      2522
 IPart=  7 Atom number   1 atomic number  7 has       23718 grid points.
 Pruned (  99, 590) grid will be used in numerical quadrature.
 IPart=  7 Atom   1 batch    3 overlaps   13 atoms,   135 shells and    13 DB shells.   NGrid=      2114
 IPart=  4 Atom number   1 atomic number  7 has       23718 grid points.
 Symmetry reduced   194 angular points to   194 for atom    1.
 IPart=  4 Atom   1 batch    4 overlaps   13 atoms,   136 shells and    13 DB shells.   NGrid=      1180
 Symmetry reduced   302 angular points to   302 for atom    1.
 Symmetry reduced   590 angular points to   590 for atom    1.
 Pruned (  99, 590) grid will be used in numerical quadrature.
 Pruned (  99, 590) grid will be used in numerical quadrature.
 IPart=  5 Atom number   1 atomic number  7 has       23718 grid points.
 Pruned (  99, 590) grid will be used in numerical quadrature.
 IPart=  5 Atom   1 batch    6 overlaps   13 atoms,   139 shells and    13 DB shells.   NGrid=      1180
 IPart=  3 Atom number   1 atomic number  7 has       23718 grid points.
 Symmetry reduced   590 angular points to   590 for atom    1.
 Pruned (  99, 590) grid will be used in numerical quadrature.
 IPart=  3 Atom   1 batch    7 overlaps   13 atoms,   139 shells and    13 DB shells.   NGrid=      1180
 IPart=  6 Atom number   1 atomic number  7 has       23718 grid points.
 IPart=  1 Atom number   1 atomic number  7 has       23718 grid points.
 Symmetry reduced   590 angular points to   590 for atom    1.
 IPart=  1 Atom   1 batch    5 overlaps   13 atoms,   138 shells and    13 DB shells.   NGrid=      1180
 IPart=  6 Atom   1 batch    8 overlaps   13 atoms,   142 shells and    13 DB shells.   NGrid=      1180
 Symmetry reduced   590 angular points to   590 for atom    1.
 Symmetry reduced   590 angular points to   590 for atom    1.
 IPart=  4 Atom   1 batch    9 overlaps   13 atoms,   144 shells and    13 DB shells.   NGrid=      1180
 IPart=  1 Atom   1 batch   10 overlaps   13 atoms,   146 shells and    13 DB shells.   NGrid=      1180
 IPart=  5 Atom   1 batch   11 overlaps   13 atoms,   146 shells and    13 DB shells.   NGrid=      1180
 IPart=  3 Atom   1 batch   12 overlaps   13 atoms,   146 shells and    13 DB shells.   NGrid=       590
 IPart=  6 Atom   1 batch   13 overlaps   13 atoms,   146 shells and    13 DB shells.   NGrid=       604
 Symmetry reduced   302 angular points to   302 for atom    1.
 IPart=  3 Atom   1 batch   14 overlaps   13 atoms,   146 shells and    13 DB shells.   NGrid=       604
 Symmetry reduced   302 angular points to   302 for atom    1.
 IPart=  6 Atom   1 batch   15 overlaps   13 atoms,   144 shells and    13 DB shells.   NGrid=       604
 IPart=  7 Atom   1 batch   16 overlaps   13 atoms,   140 shells and    13 DB shells.   NGrid=       604
 IPart=  0 Atom   1 batch   17 overlaps   13 atoms,   136 shells and    13 DB shells.   NGrid=       604
 Symmetry reduced   302 angular points to   302 for atom    1.
 IPart=  2 Atom   1 batch   18 overlaps   13 atoms,   118 shells and    13 DB shells.   NGrid=       604
 Symmetry reduced   302 angular points to   302 for atom    1.
 IPart=  7 Atom   1 batch   19 overlaps   13 atoms,    96 shells and    13 DB shells.   NGrid=       604
 IPart=  0 Atom   1 batch   20 overlaps   13 atoms,    66 shells and    12 DB shells.   NGrid=       604
 IPart=  4 Atom   1 batch   21 overlaps   13 atoms,    38 shells and     8 DB shells.   NGrid=       604
 Symmetry reduced   302 angular points to   302 for atom    1.
 IPart=  1 Atom   1 batch   22 overlaps   13 atoms,    16 shells and     0 DB shells.   NGrid=       604
 Symmetry reduced   302 angular points to   302 for atom    1.
 IPart=  5 Atom   1 batch   23 overlaps   13 atoms,     6 shells and     0 DB shells.   NGrid=       604
 Symmetry reduced   302 angular points to   302 for atom    1.
 Pruned (  99, 590) grid will be used in numerical quadrature.
 IPart=  6 Atom number   2 atomic number  6 has       23114 grid points.
 IPart=  6 Atom   2 batch    1 overlaps   13 atoms,   130 shells and    13 DB shells.   NGrid=      2408
 Symmetry reduced    86 angular points to    86 for atom    2.
 Pruned (  99, 590) grid will be used in numerical quadrature.
 IPart=  5 Atom number   2 atomic number  6 has       23114 grid points.
 IPart=  5 Atom   2 batch    2 overlaps   13 atoms,   133 shells and    13 DB shells.   NGrid=      2522
 Symmetry reduced   194 angular points to   194 for atom    2.
 Pruned (  99, 590) grid will be used in numerical quadrature.
 IPart=  4 Atom number   2 atomic number  6 has       23114 grid points.
 IPart=  4 Atom   2 batch    3 overlaps   13 atoms,   136 shells and    13 DB shells.   NGrid=      2114
 Symmetry reduced   302 angular points to   302 for atom    2.
 Pruned (  99, 590) grid will be used in numerical quadrature.
 IPart=  1 Atom number   2 atomic number  6 has       23114 grid points.
 IPart=  1 Atom   2 batch    4 overlaps   13 atoms,   138 shells and    13 DB shells.   NGrid=      1180
 Symmetry reduced   590 angular points to   590 for atom    2.
 Pruned (  99, 590) grid will be used in numerical quadrature.
 IPart=  3 Atom number   2 atomic number  6 has       23114 grid points.
 IPart=  3 Atom   2 batch    5 overlaps   13 atoms,   138 shells and    13 DB shells.   NGrid=      1180
 Symmetry reduced   590 angular points to   590 for atom    2.
 Pruned (  99, 590) grid will be used in numerical quadrature.
 IPart=  0 Atom number   2 atomic number  6 has       23114 grid points.
 IPart=  0 Atom   2 batch    6 overlaps   13 atoms,   141 shells and    13 DB shells.   NGrid=      1180
 Symmetry reduced   590 angular points to   590 for atom    2.
 Pruned (  99, 590) grid will be used in numerical quadrature.
 IPart=  7 Atom number   2 atomic number  6 has       23114 grid points.
 IPart=  7 Atom   2 batch    7 overlaps   13 atoms,   141 shells and    13 DB shells.   NGrid=      1180
 Symmetry reduced   590 angular points to   590 for atom    2.
 Pruned (  99, 590) grid will be used in numerical quadrature.
 IPart=  2 Atom number   2 atomic number  6 has       23114 grid points.
 IPart=  2 Atom   2 batch    8 overlaps   13 atoms,   144 shells and    13 DB shells.   NGrid=      1180
 Symmetry reduced   590 angular points to   590 for atom    2.
 IPart=  1 Atom   2 batch    9 overlaps   13 atoms,   146 shells and    13 DB shells.   NGrid=      1180
 IPart=  3 Atom   2 batch   10 overlaps   13 atoms,   146 shells and    13 DB shells.   NGrid=      1180
 IPart=  0 Atom   2 batch   11 overlaps   13 atoms,   146 shells and    13 DB shells.   NGrid=      1180
 IPart=  7 Atom   2 batch   12 overlaps   13 atoms,   146 shells and    13 DB shells.   NGrid=       590
 IPart=  2 Atom   2 batch   13 overlaps   13 atoms,   146 shells and    13 DB shells.   NGrid=       604
 Symmetry reduced   302 angular points to   302 for atom    2.
 IPart=  7 Atom   2 batch   14 overlaps   13 atoms,   146 shells and    13 DB shells.   NGrid=       604
 Symmetry reduced   302 angular points to   302 for atom    2.
 IPart=  2 Atom   2 batch   15 overlaps   13 atoms,   141 shells and    13 DB shells.   NGrid=       604
 IPart=  4 Atom   2 batch   16 overlaps   13 atoms,   134 shells and    13 DB shells.   NGrid=       604
 IPart=  6 Atom   2 batch   17 overlaps   13 atoms,   122 shells and    13 DB shells.   NGrid=       604
 Symmetry reduced   302 angular points to   302 for atom    2.
 IPart=  5 Atom   2 batch   18 overlaps   13 atoms,   103 shells and    13 DB shells.   NGrid=       604
 Symmetry reduced   302 angular points to   302 for atom    2.
 IPart=  6 Atom   2 batch   19 overlaps   13 atoms,    71 shells and    13 DB shells.   NGrid=       604
 IPart=  0 Atom   2 batch   20 overlaps   13 atoms,    46 shells and     9 DB shells.   NGrid=       604
 Symmetry reduced   302 angular points to   302 for atom    2.
 IPart=  4 Atom   2 batch   21 overlaps   13 atoms,    26 shells and     0 DB shells.   NGrid=       604
 IPart=  0 Atom   2 batch   22 overlaps   13 atoms,    10 shells and     0 DB shells.   NGrid=       604
 Pruned (  99, 590) grid will be used in numerical quadrature.
 IPart=  6 Atom number   3 atomic number  6 has       23114 grid points.
 IPart=  6 Atom   3 batch    1 overlaps   13 atoms,   137 shells and    13 DB shells.   NGrid=      2408
 Pruned (  99, 590) grid will be used in numerical quadrature.
 Symmetry reduced    86 angular points to    86 for atom    3.
 IPart=  3 Atom number   3 atomic number  6 has       23114 grid points.
 IPart=  3 Atom   3 batch    2 overlaps   13 atoms,   141 shells and    13 DB shells.   NGrid=      2522
 Symmetry reduced   194 angular points to   194 for atom    3.
 Pruned (  99, 590) grid will be used in numerical quadrature.
 IPart=  4 Atom number   3 atomic number  6 has       23114 grid points.
 IPart=  4 Atom   3 batch    3 overlaps   13 atoms,   145 shells and    13 DB shells.   NGrid=      2114
 Symmetry reduced   302 angular points to   302 for atom    3.
 Pruned (  99, 590) grid will be used in numerical quadrature.
 IPart=  2 Atom number   3 atomic number  6 has       23114 grid points.
 IPart=  2 Atom   3 batch    4 overlaps   13 atoms,   146 shells and    13 DB shells.   NGrid=      1180
 Symmetry reduced   590 angular points to   590 for atom    3.
 Pruned (  99, 590) grid will be used in numerical quadrature.
 IPart=  0 Atom number   3 atomic number  6 has       23114 grid points.
 IPart=  0 Atom   3 batch    5 overlaps   13 atoms,   147 shells and    13 DB shells.   NGrid=      1180
 Symmetry reduced   590 angular points to   590 for atom    3.
 Pruned (  99, 590) grid will be used in numerical quadrature.
 IPart=  1 Atom number   3 atomic number  6 has       23114 grid points.
 IPart=  1 Atom   3 batch    6 overlaps   13 atoms,   147 shells and    13 DB shells.   NGrid=      1180
 Symmetry reduced   590 angular points to   590 for atom    3.
 Pruned (  99, 590) grid will be used in numerical quadrature.
 IPart=  5 Atom number   3 atomic number  6 has       23114 grid points.
 IPart=  5 Atom   3 batch    7 overlaps   13 atoms,   147 shells and    13 DB shells.   NGrid=      1180
 Symmetry reduced   590 angular points to   590 for atom    3.
 Pruned (  99, 590) grid will be used in numerical quadrature.
 IPart=  7 Atom number   3 atomic number  6 has       23114 grid points.
 IPart=  7 Atom   3 batch    8 overlaps   13 atoms,   147 shells and    13 DB shells.   NGrid=      1180
 Symmetry reduced   590 angular points to   590 for atom    3.
 IPart=  2 Atom   3 batch    9 overlaps   13 atoms,   147 shells and    13 DB shells.   NGrid=      1180
 IPart=  0 Atom   3 batch   10 overlaps   13 atoms,   147 shells and    13 DB shells.   NGrid=      1180
 IPart=  1 Atom   3 batch   11 overlaps   13 atoms,   146 shells and    13 DB shells.   NGrid=      1180
 IPart=  5 Atom   3 batch   12 overlaps   13 atoms,   146 shells and    13 DB shells.   NGrid=       590
 IPart=  7 Atom   3 batch   13 overlaps   13 atoms,   146 shells and    13 DB shells.   NGrid=       604
 Symmetry reduced   302 angular points to   302 for atom    3.
 IPart=  5 Atom   3 batch   14 overlaps   13 atoms,   146 shells and    13 DB shells.   NGrid=       604
 Symmetry reduced   302 angular points to   302 for atom    3.
 IPart=  7 Atom   3 batch   15 overlaps   13 atoms,   141 shells and    13 DB shells.   NGrid=       604
 IPart=  4 Atom   3 batch   16 overlaps   13 atoms,   134 shells and    13 DB shells.   NGrid=       604
 IPart=  6 Atom   3 batch   17 overlaps   13 atoms,   123 shells and    13 DB shells.   NGrid=       604
 Symmetry reduced   302 angular points to   302 for atom    3.
 IPart=  3 Atom   3 batch   18 overlaps   13 atoms,    94 shells and    13 DB shells.   NGrid=       604
 Symmetry reduced   302 angular points to   302 for atom    3.
 IPart=  6 Atom   3 batch   19 overlaps   13 atoms,    70 shells and    13 DB shells.   NGrid=       604
 IPart=  4 Atom   3 batch   20 overlaps   13 atoms,    43 shells and     9 DB shells.   NGrid=       604
 IPart=  6 Atom   3 batch   21 overlaps   13 atoms,    19 shells and     0 DB shells.   NGrid=       604
 IPart=  4 Atom   3 batch   22 overlaps   13 atoms,     9 shells and     0 DB shells.   NGrid=       604
 Pruned (  99, 590) grid will be used in numerical quadrature.
 Pruned (  99, 590) grid will be used in numerical quadrature.
 IPart=  3 Atom number   4 atomic number  7 has       23416 grid points.
 IPart=  7 Atom number   4 atomic number  7 has       23416 grid points.
 IPart=  3 Atom   4 batch    1 overlaps   13 atoms,   141 shells and    13 DB shells.   NGrid=      2408
 IPart=  7 Atom   4 batch    2 overlaps   13 atoms,   143 shells and    13 DB shells.   NGrid=      2522
 Symmetry reduced    86 angular points to    86 for atom    4.
 Symmetry reduced   194 angular points to   194 for atom    4.
 Pruned (  99, 590) grid will be used in numerical quadrature.
 IPart=  6 Atom number   4 atomic number  7 has       23416 grid points.
 IPart=  6 Atom   4 batch    3 overlaps   13 atoms,   146 shells and    13 DB shells.   NGrid=      2114
 Symmetry reduced   302 angular points to   302 for atom    4.
 Pruned (  99, 590) grid will be used in numerical quadrature.
 IPart=  4 Atom number   4 atomic number  7 has       23416 grid points.
 IPart=  4 Atom   4 batch    4 overlaps   13 atoms,   146 shells and    13 DB shells.   NGrid=      1180
 Symmetry reduced   590 angular points to   590 for atom    4.
 Pruned (  99, 590) grid will be used in numerical quadrature.
 IPart=  2 Atom number   4 atomic number  7 has       23416 grid points.
 IPart=  2 Atom   4 batch    5 overlaps   13 atoms,   146 shells and    13 DB shells.   NGrid=      1180
 Symmetry reduced   590 angular points to   590 for atom    4.
 Pruned (  99, 590) grid will be used in numerical quadrature.
 IPart=  5 Atom number   4 atomic number  7 has       23416 grid points.
 IPart=  5 Atom   4 batch    6 overlaps   13 atoms,   147 shells and    13 DB shells.   NGrid=      1180
 Symmetry reduced   590 angular points to   590 for atom    4.
 Pruned (  99, 590) grid will be used in numerical quadrature.
 IPart=  0 Atom number   4 atomic number  7 has       23416 grid points.
 IPart=  0 Atom   4 batch    7 overlaps   13 atoms,   147 shells and    13 DB shells.   NGrid=      1180
 Symmetry reduced   590 angular points to   590 for atom    4.
 Pruned (  99, 590) grid will be used in numerical quadrature.
 IPart=  1 Atom number   4 atomic number  7 has       23416 grid points.
 IPart=  1 Atom   4 batch    8 overlaps   13 atoms,   147 shells and    13 DB shells.   NGrid=      1180
 Symmetry reduced   590 angular points to   590 for atom    4.
 IPart=  4 Atom   4 batch    9 overlaps   13 atoms,   147 shells and    13 DB shells.   NGrid=      1180
 IPart=  2 Atom   4 batch   10 overlaps   13 atoms,   147 shells and    13 DB shells.   NGrid=      1180
 IPart=  5 Atom   4 batch   11 overlaps   13 atoms,   147 shells and    13 DB shells.   NGrid=      1180
 IPart=  0 Atom   4 batch   12 overlaps   13 atoms,   146 shells and    13 DB shells.   NGrid=       590
 IPart=  1 Atom   4 batch   13 overlaps   13 atoms,   146 shells and    13 DB shells.   NGrid=       604
 Symmetry reduced   302 angular points to   302 for atom    4.
 IPart=  0 Atom   4 batch   14 overlaps   13 atoms,   146 shells and    13 DB shells.   NGrid=       604
 Symmetry reduced   302 angular points to   302 for atom    4.
 IPart=  1 Atom   4 batch   15 overlaps   13 atoms,   144 shells and    13 DB shells.   NGrid=       604
 IPart=  6 Atom   4 batch   16 overlaps   13 atoms,   139 shells and    13 DB shells.   NGrid=       604
[...]
   zz         0.361963D+02      0.536374D+01      0.596797D+01

 First dipole hyperpolarizability, Beta (input orientation).
 ||, _|_  parallel and perpendicular components, (z) with respect to z axis,
 vector components x,y,z.  Values do not include the 1/n! factor of 1/2.
 (esu units = statvolt**-1 cm**4 , SI units = C**3 m**3 J**-2)
 Beta(0;0,0):
               (au)            (10**-30 esu)      (10**-50 SI)
   || (z)    -0.390131D+01     -0.337043D-01     -0.125090D-01
   _|_(z)    -0.130044D+01     -0.112348D-01     -0.416967D-02
   x         -0.107516D+03     -0.928852D+00     -0.344734D+00
   y          0.375876D+02      0.324728D+00      0.120519D+00
   z         -0.195066D+02     -0.168521D+00     -0.625451D-01
   ||         0.231110D+02      0.199661D+00      0.741022D-01
   xxx       -0.584392D+02     -0.504869D+00     -0.187377D+00
   xxy        0.361312D+02      0.312145D+00      0.115850D+00
   yxy        0.519613D+01      0.448905D-01      0.166607D-01
   yyy       -0.231224D+02     -0.199760D+00     -0.741388D-01
   xxz       -0.183844D+02     -0.158827D+00     -0.589471D-01
   yxz        0.687171D+01      0.593662D-01      0.220332D-01
   yyz        0.961372D+00      0.830551D-02      0.308251D-02
   zxz        0.174045D+02      0.150361D+00      0.558050D-01
   zyz       -0.479540D+00     -0.414286D-02     -0.153758D-02
   zzz        0.109209D+02      0.943477D-01      0.350162D-01

 ----------------------------------------------------------------------

 Dipole orientation:
     7          0.57568865          1.95117408          2.14109730
     6          0.85622145          2.89718119         -0.26246457
     6          0.29534962          1.00582037         -1.83938800
     7         -0.31907830         -1.06614121         -0.37719992
     6         -0.12926295         -0.42604966          1.99729974
     6         -1.05611438         -3.55155959         -1.34737197
     1          1.41975830          4.79752894         -0.61924153
     1          0.27459924          0.93584638         -3.85264737
     1         -0.48799129         -1.63574622          3.57271718
     1          0.46280361         -4.30887651         -2.47534713
     1         -2.74233347         -3.35841212         -2.47534713
     1         -1.42356016         -4.79065292          0.22650423
     1          0.85501447          2.89311105          3.74315355

 Electric dipole moment (dipole orientation):
 (Debye = 10**-18 statcoulomb cm , SI units = C m)
                  (au)            (Debye)         (10**-30 SI)
   Tot        0.640380D+00      0.162768D+01      0.542937D+01
   x          0.000000D+00      0.000000D+00      0.000000D+00
   y          0.000000D+00      0.000000D+00      0.000000D+00
   z          0.640380D+00      0.162768D+01      0.542937D+01

 Dipole polarizability, Alpha (dipole orientation).
 (esu units = cm**3 , SI units = C**2 m**2 J**-1)
 Alpha(0;0):
               (au)            (10**-24 esu)      (10**-40 SI)
   iso        0.513802D+02      0.761375D+01      0.847144D+01
   aniso      0.248375D+02      0.368054D+01      0.409515D+01
   xx         0.377352D+02      0.559178D+01      0.622169D+01
   yx         0.726998D+01      0.107730D+01      0.119866D+01
   yy         0.600950D+02      0.890516D+01      0.990832D+01
   zx         0.879099D+00      0.130269D+00      0.144944D+00
   zy         0.296448D+01      0.439291D+00      0.488777D+00
   zz         0.563103D+02      0.834433D+01      0.928432D+01

 First dipole hyperpolarizability, Beta (dipole orientation).
 ||, _|_  parallel and perpendicular components, (z) with respect to z axis,
 vector components x,y,z.  Values do not include the 1/n! factor of 1/2.
 (esu units = statvolt**-1 cm**4 , SI units = C**3 m**3 J**-2)
 Beta(0;0,0):
               (au)            (10**-30 esu)      (10**-50 SI)
   || (z)     0.180195D+02      0.155675D+00      0.577772D-01
   _|_(z)     0.600651D+01      0.518916D-01      0.192591D-01
   x         -0.205712D+02     -0.177720D+00     -0.659589D-01
   y         -0.693700D+02     -0.599302D+00     -0.222425D+00
   z          0.900977D+02      0.778374D+00      0.288886D+00
   ||         0.231110D+02      0.199661D+00      0.741022D-01
   xxx        0.727446D+01      0.628456D-01      0.233245D-01
   xxy        0.727071D+01      0.628133D-01      0.233125D-01
   yxy       -0.202469D+01     -0.174917D-01     -0.649188D-02
   yyy        0.104325D+02      0.901283D-01      0.334502D-01
   xxz       -0.157679D+02     -0.136223D+00     -0.505577D-01
   yxz        0.140076D+02      0.121015D+00      0.449136D-01
   yyz        0.273145D+02      0.235976D+00      0.875801D-01
   zxz       -0.121069D+02     -0.104594D+00     -0.388189D-01
   zyz       -0.408265D+02     -0.352709D+00     -0.130904D+00
   zzz        0.184860D+02      0.159705D+00      0.592729D-01

 ----------------------------------------------------------------------

 Test job not archived.
 1\1\NSC-N193\Freq\RHF\Aug-CC-pVTZ\C4H7N2(1+)\X_DAVVA\29-Sep-2025\0\\#P
  Geom=AllCheck Guess=TCheck SCRF=Check Test GenChk RHF/Aug-CC-pVTZ Fre
 q\\1-methylimidazolium\\1,1\N,-0.6910396531,-1.3964858828,-0.122159166
 1\C,0.6605449751,-1.4572885984,0.1226287683\C,1.08571633,-0.1925082701
 ,0.1982917994\N,-0.0114794838,0.6217037039,-0.0012218967\C,-1.05738384
 56,-0.1360640343,-0.189807218\C,0.0072243145,2.0863395577,0.0006354843
 \H,1.1845494662,-2.3803709472,0.2184713419\H,2.0593677731,0.2044504958
 ,0.3741713766\H,-2.0516247821,0.2100294522,-0.3701906457\H,0.665704120
 9,2.4339814153,-0.7794280894\H,0.3505094029,2.4357989591,0.9613556155\
 H,-0.9916629511,2.4479769909,-0.1806054596\H,-1.3029792673,-2.17266333
 58,-0.2321495095\\Version=ES64L-G16RevC.01\State=1-A'\HF=-264.3321026\
 RMSD=2.111e-09\RMSF=1.522e-06\ZeroPoint=0.1204266\Thermal=0.1255495\ET
 ot=-264.2065531\HTot=-264.2056089\GTot=-264.2402559\Dipole=-0.5929774,
 -0.2167616,-0.107141\DipoleDeriv=-0.2123374,-0.2335643,0.0018655,-0.13
 21034,-0.7017153,-0.0234177,0.0017596,-0.0417887,-0.2209314,0.14976,0.
 2024873,0.034748,-0.1142563,0.0762431,-0.0208126,0.0350787,0.0365385,-
 0.0370031,0.0749953,-0.2504135,0.0247085,0.1226482,0.1062235,0.0220337
 ,0.024319,-0.0455146,-0.0555718,-0.1718733,-0.1048356,-0.0030433,-0.17
 9981,-0.8111152,-0.0319026,-0.0029649,-0.0182964,-0.1549785,0.1828265,
 0.283243,-0.007887,0.2091555,0.7603447,0.0373115,-0.0078097,0.0507261,
 0.2232852,0.1654759,0.023085,-0.0123791,0.0471228,0.841096,0.0078981,-
 0.0124042,0.0035457,0.2314615,0.112852,-0.0307109,-0.0152665,-0.015822
 8,0.137941,-0.0028029,-0.0152821,-0.0054986,0.194583,0.1385946,0.01551
 01,-0.0099963,0.0018863,0.0947898,0.0004448,-0.0099821,0.0029116,0.191
 9032,0.1820882,-0.0114017,0.0020568,-0.0056163,0.1036362,-0.0009468,0.
 0020507,-0.0019943,0.171168,0.0495078,-0.0192673,0.0595084,0.0104527,-
 0.0031136,-0.0258612,0.0596576,0.0159075,0.0299276,0.0862271,-0.012576
 7,-0.0383925,0.0006106,-0.0030967,0.027891,-0.0385865,-0.0216467,-0.00
 68087,-0.0339574,0.0227808,-0.0250305,-0.0427462,0.0229139,-0.007655,-
 0.0249621,0.0042096,0.0996276,0.2758406,0.1156637,-0.0108918,0.0986498
 ,0.3758527,0.0178197,-0.0108741,0.0209003,0.3333373\Polar=54.404257,0.
 4886739,63.5398911,3.4080266,0.0592881,36.196317\PolarDeriv=7.4159324,
 -1.5376148,-1.6742363,1.5087704,0.0187818,-0.0948655,-4.568782,0.01866
 02,-1.0431472,-0.5748406,0.0013031,-1.50131,1.5369629,0.0168698,-0.305
 4681,-0.2324685,-1.6306067,-0.2016253,-7.3671722,0.8523439,0.0592663,-
 1.3678111,1.0422641,-1.0369099,-6.9112947,1.4747453,-6.5038482,-0.4816
 38,0.264248,-4.3416554,-1.6666274,1.0425563,0.0072714,0.6597745,-4.720
 0394,0.1669429,-0.0431895,2.8976185,2.8291729,-0.9197545,0.046306,1.52
 91781,8.9158601,-3.3242076,5.6963909,0.9195477,-0.6010465,4.0427651,-1
 .1828255,0.0542114,0.5118205,2.9464727,2.6455634,1.4328516,6.9706232,-
 4.7544627,2.3601056,1.0303938,-1.0301774,1.0076885,0.5796325,2.4925201
 ,4.3153887,-0.0663658,0.4487449,0.9221158,1.0906221,-1.0306951,0.42476
 07,0.6432904,0.739386,0.3504672,-7.4503446,2.0359955,-3.6480135,-0.369
 9088,0.2416999,-1.3108868,2.3153534,0.1881971,-1.1349889,0.3098579,0.0
 366119,0.6349469,0.1126009,0.2349105,-0.6578505,-3.977414,0.7571744,-1
 .7035236,2.3585176,-3.1164751,-1.2106352,1.5108481,0.0356912,-2.573751
 2,-2.0371343,-1.0567262,1.0090069,0.0536909,-0.198308,-2.335635,1.5235
 369,0.035451,-0.2271972,-2.650074,-3.3174971,-1.5510025,2.4029886,-2.3
 705831,2.7503284,0.2847142,-0.4676854,0.6671713,-2.130412,2.4808669,-6
 .9234732,-0.2400103,0.4557815,-0.8617813,0.3569833,-0.4678223,0.505634
 4,0.2664153,0.1150024,0.201621,6.9186831,1.4164122,1.3734861,1.0586518
 ,0.3183018,1.1195532,1.5932139,1.3731865,1.5647797,0.2528352,0.2468408
 ,0.2352195,1.203577,0.3174654,0.2463378,0.318196,-0.2866735,0.2506742,
 -6.8014333,1.1207495,-1.2475981,-1.0390067,0.1996803,-1.2269369,1.4162
 409,-1.4332088,1.1080342,0.2029147,-0.2603236,0.3406648,-1.2221169,0.2
 009281,-0.2270131,-0.2173474,0.0555593,-0.2334128,2.3572969,1.992684,2
 .7944141,-1.6473105,-0.8526952,2.035767,1.0378718,1.2063253,2.5558863,
 -0.5556384,-1.4109662,1.312039,-1.9237452,-0.9584588,-2.8592311,1.9060
 178,2.2462829,-3.2497265,0.8659645,1.4314746,1.6165608,0.9083834,0.546
 6895,1.4338955,0.7092706,0.6371497,2.569291,0.3308558,1.7478698,1.6460
 977,1.2143806,0.6549733,3.6632234,1.4099597,2.8088299,5.1553604,-4.883
 0261,2.4682686,-3.2340241,-0.6317906,0.2700497,-0.9874735,1.5087662,-1
 .6655079,2.1454999,0.1497271,-0.3020522,0.7157843,-0.6981408,0.2688004
 ,-0.5857402,-0.6153701,1.0394452,-0.3691908,-2.7448405,-2.4364114,-2.7
 688269,-0.3261794,-0.3689063,-0.5624299,-2.4285858,-2.3920009,-5.35882
 03,-0.3009365,-0.4287036,-0.8092513,-0.3452076,-0.3691904,-0.4965481,-
 0.4574525,-0.4524268,-0.2494355\HyperPolar=-58.4391597,36.1311535,5.19
 61281,-23.1224164,-18.3844213,6.8717115,0.9613722,17.4044593,-0.479540
 3,10.9208622\Quadrupole=1.3037541,6.5041505,-7.8079046,1.3689688,1.704
 199,0.232607\PG=CS [SG(C4H5N2),X(H2)]\NImag=0\\0.81392561,0.17796097,1
 .05033356,0.12465536,0.03125576,0.14698044,-0.29329337,0.00003105,-0.0
 4046521,0.65874278,0.01746761,-0.15220865,0.00324880,-0.10105889,1.047
 71932,-0.04048341,0.00009165,-0.07713915,0.09084283,-0.01922757,0.1740
 7969,-0.05793519,-0.01499949,-0.01334042,-0.16905931,-0.12040130,-0.01
 494545,0.88160610,-0.09082109,-0.02377478,-0.01640316,-0.10502449,-0.4
 6770199,-0.01861752,0.20954849,0.81075212,-0.01326125,-0.00267453,0.01
 343053,-0.01496151,-0.02140173,-0.08850969,0.13074970,0.03726063,0.181
 91765,-0.02020485,-0.08424997,-0.00674177,0.01352144,0.07214286,-0.000
 27252,-0.23176139,0.04328135,-0.02775331,0.75145339,-0.00580865,-0.117
 21982,-0.00091107,-0.00411901,-0.08419386,-0.00064265,0.06860672,-0.19
 484919,0.01254350,0.09494261,0.94263746,-0.00682367,-0.01511403,0.0162
 9525,-0.00019289,0.01316570,0.01456186,-0.02777976,0.00795796,-0.08377
 089,0.10251595,0.01639943,0.20326717,-0.18218440,0.09999903,-0.0174996
 9,-0.05770654,0.02369148,-0.01365078,-0.10280986,0.03857442,-0.0217465
 8,-0.36284593,-0.15400425,-0.04910487,1.03731457,0.07479642,-0.4157580
 2,0.01388718,0.09379773,-0.02957571,0.01703267,-0.03721488,0.02259360,
 -0.00674407,-0.12421610,-0.25485804,-0.02231983,-0.08265699,0.82961118
 ,-0.01747338,0.01845049,-0.08929534,-0.01372398,0.00433890,0.01505907,
 -0.02166745,0.00697871,0.01314105,-0.04913597,-0.02771342,-0.09962526,
 0.15334553,-0.01563317,0.21866354,-0.00316564,-0.00893682,-0.00174463,
 -0.00954929,0.00439591,-0.00199761,0.01278834,0.03029721,0.00254483,-0
 .12979177,-0.00158264,-0.00957082,0.01240522,-0.02556522,0.00328080,0.
 69930787,-0.00132781,0.00875358,-0.00024275,0.00244265,0.00496552,0.00
 043862,0.00807996,-0.01732552,0.00147958,-0.00330263,-0.23440126,-0.00
 043357,-0.00993462,-0.02164406,-0.00178202,-0.00312561,0.50550594,-0.0
 0175257,-0.00162048,0.00620562,-0.00199557,0.00079228,0.00109576,0.002
 56802,0.00550234,-0.00098191,-0.00956903,-0.00012214,-0.07865658,0.003
 26448,-0.00461218,-0.00497095,0.00666049,-0.00040198,0.66374719,-0.012
 79376,0.03395522,-0.00206127,-0.14461248,0.13280858,-0.01931679,0.0152
 7859,-0.00886021,0.00207276,0.00146245,-0.00543889,-0.00111355,-0.0072
 7666,-0.00447763,-0.00189327,0.00125685,0.00038364,0.00001083,0.145894
 18,-0.00528713,0.01219619,-0.00097172,0.14256443,-0.32747841,0.0261149
 2,0.01634796,-0.00734387,0.00297176,-0.00206711,-0.00456473,-0.0003615
 3,-0.00316963,0.00043702,-0.00057102,0.00103354,0.00025157,0.00018812,
 -0.14993443,0.32597909,-0.00202030,0.00613369,-0.00197760,-0.01932697,
 0.02434848,-0.04221880,0.00204644,-0.00159255,0.00425428,-0.00111707,-
 0.00097204,0.00744259,-0.00189464,-0.00080785,0.00286326,0.00001015,0.
 00007045,0.00119659,0.02149005,-0.02745890,0.03199146,0.00285632,-0.00
 033950,-0.00072447,0.00292679,0.00077045,-0.00011996,-0.34084746,-0.11
 278378,-0.05476052,-0.01819325,-0.01106836,-0.00295933,-0.00090247,0.0
 0538460,-0.00071021,0.00056618,-0.00098092,0.00020761,-0.00026818,-0.0
 0046564,0.00065714,0.35347045,-0.00373331,-0.00592133,-0.00066263,-0.0
 2481776,0.00454396,-0.00449463,-0.12246050,-0.12239304,-0.02208493,0.0
 2800132,0.01504786,0.00505248,0.00411016,-0.00643275,0.00075404,-0.000
 55640,0.00205932,-0.00010350,0.00068194,0.00015828,0.00011924,0.119365
 43,0.11112810,-0.00072093,-0.00004813,0.00672894,-0.00009324,0.0001385
 0,0.00356785,-0.05475042,-0.02033282,-0.04765327,-0.00300013,-0.002021
 67,-0.00232648,-0.00070888,0.00098480,0.00285949,0.00020717,-0.0001803
 6,-0.00053707,0.00065594,-0.00008854,-0.00377592,0.05887363,0.02152570
 ,0.03826742,0.00391049,-0.00057899,-0.00014066,0.00283831,0.00005593,-
 0.00019711,-0.00005002,-0.00546340,-0.00079728,-0.01612911,0.01164309,
 -0.00387812,-0.35415593,0.09622827,-0.05585377,0.00023405,0.00109190,0
 .00072023,0.00032676,0.00005376,-0.00026400,-0.00028137,0.00066764,-0.
 00036931,0.36244430,0.03580572,-0.00135405,0.00648947,-0.00208071,-0.0
 0691183,-0.00036543,-0.00356819,-0.00366196,-0.00063767,-0.02366196,0.
 01550574,-0.00429509,0.09716263,-0.11154032,0.01766092,-0.00053218,0.0
 0261851,-0.00010301,0.00135590,0.00059004,0.00024675,-0.00065318,0.001
 19542,-0.00011768,-0.10376587,0.10349957,-0.00017865,-0.00009852,0.004
 65843,-0.00019488,0.00002144,0.00389128,-0.00079926,-0.00098083,0.0042
 4109,-0.00384126,0.00209742,0.00452445,-0.05585474,0.01749174,-0.05636
 857,0.00072193,0.00019106,-0.00361950,-0.00026536,0.00001098,0.0017364
 2,-0.00036793,0.00012147,0.00168768,0.06014978,-0.01886421,0.04175316,
 -0.00001000,0.00126200,-0.00035353,0.00041355,-0.00047491,-0.00006029,
 0.00048226,0.00036142,-0.00042384,0.00321316,0.00071815,-0.00303711,-0
 .00055409,-0.00138116,0.00015319,-0.17277444,-0.05552267,0.13187171,-0
 .00004265,0.00000390,0.00009184,0.00003641,0.00002780,0.00013803,0.000
 07308,0.00009290,0.00040504,0.17610139,0.00069001,-0.00393363,-0.00084
 348,-0.00191881,-0.00077035,-0.00058281,-0.00150906,0.00248543,0.00011
 074,-0.03118881,-0.02745569,0.02736562,0.00439518,0.00028937,0.0036619
 5,-0.04641492,-0.08155539,0.05795964,0.00007976,0.00000744,-0.00017584
 ,0.00035201,-0.00012036,0.00034113,-0.00010866,-0.00012617,0.00029231,
 0.06049280,0.09942832,-0.00039994,-0.00026288,-0.00059764,0.00000107,0
 .00024760,0.00007743,0.00039577,0.00027077,0.00034024,-0.00442787,-0.0
 0125780,0.00662104,-0.00051799,-0.00120696,0.00041252,0.13331001,0.066
 41495,-0.21936810,0.00000781,0.00001049,-0.00000265,-0.00014682,0.0002
 6765,-0.00020383,-0.00000784,0.00000218,0.00018323,-0.14420315,-0.0700
 6674,0.22559634,-0.00032914,0.00108930,0.00045203,0.00035192,-0.000358
 02,0.00016406,0.00045524,0.00043510,0.00046592,0.00117374,0.00022305,0
 .00098645,-0.00055370,-0.00171741,-0.00051267,-0.09144329,-0.02887649,
 -0.08393667,-0.00000500,0.00000715,-0.00009266,0.00000419,0.00011972,-
 0.00006054,0.00021708,0.00008685,-0.00039267,0.01029549,0.00826094,0.0
 2107234,0.08750512,0.00035014,-0.00393067,0.00103909,-0.00200154,-0.00
 077054,-0.00012521,-0.00137439,0.00248423,-0.00063729,-0.01961900,-0.0
 2751948,-0.03649133,0.00540076,0.00028551,-0.00188791,-0.02331462,-0.0
 8184496,-0.07096638,0.00001303,0.00000780,0.00019258,0.00044968,-0.000
 12145,-0.00019612,0.00000064,-0.00012677,-0.00031138,0.00520090,0.0059
 6899,0.00955180,0.03227587,0.09975669,0.00049981,0.00069590,-0.0002814
 7,0.00010592,-0.00039660,0.00013926,-0.00034986,-0.00013100,0.00036846
 ,0.00243124,0.00150202,0.00872425,0.00014505,0.00064625,0.00041598,-0.
 08539028,-0.08207784,-0.30040969,-0.00000872,-0.00000855,-0.00004067,0
 .00022363,-0.00024110,-0.00017053,0.00002051,0.00003086,0.00003983,-0.
 00962483,-0.00717140,-0.02031981,0.09245918,0.08722896,0.31386424,0.00
 033465,0.00041482,0.00011214,0.00043675,-0.00045671,-0.00000621,0.0003
 5659,-0.00142556,-0.00006266,0.00575855,-0.00305772,0.00136936,0.00074
 823,-0.00071082,-0.00000736,-0.32108650,0.09202090,-0.04768964,0.00000
 432,-0.00006530,0.00001535,0.00018600,-0.00016876,0.00007809,0.0005717
 7,-0.00003889,0.00004226,-0.01715675,0.00635104,-0.00511696,-0.0076554
 8,0.00233716,-0.00051864,0.33751696,0.00055912,-0.00039604,0.00010135,
 0.00140196,-0.00189867,0.00025632,-0.00527825,-0.00396656,-0.00095082,
 0.04443986,-0.02319546,0.00806885,0.00221472,0.00277948,0.00039893,0.0
 7508089,-0.08741312,0.01362498,-0.00040527,-0.00036368,-0.00007308,0.0
 0009435,-0.00001573,0.00001684,-0.00064484,-0.00050031,-0.00011588,-0.
 01074723,0.00591193,-0.00394500,-0.01150484,0.00593913,-0.00008991,-0.
 09522026,0.10306271,0.00011199,0.00007522,-0.00026687,-0.00000815,-0.0
 0008022,0.00047232,-0.00005864,-0.00025324,0.00070052,0.00131976,-0.00
 053129,-0.00154710,-0.00001042,-0.00013078,0.00079124,-0.04767195,0.01
 669222,-0.06688196,0.00001570,-0.00001153,-0.00007722,0.00007782,-0.00
 003079,-0.00023020,0.00004289,-0.00000617,0.00034639,0.02487209,-0.010
 30873,0.00738733,-0.03047538,0.01187602,-0.00214114,0.05177926,-0.0172
 9426,0.06148867,-0.25111073,-0.20560762,-0.04214789,-0.00501055,-0.028
 58301,0.00004325,-0.00850389,0.00188055,-0.00206624,0.00234357,0.00894
 591,-0.00041161,0.01852156,0.00773318,0.00419855,0.00125243,-0.0009482
 9,-0.00035991,0.00077557,0.00097849,0.00040468,0.00044639,-0.00123728,
 -0.00024942,0.00000059,-0.00020303,0.00057574,-0.00007740,0.00051852,0
 .00003357,-0.00001617,0.00028137,0.00000699,-0.00001509,0.00000979,0.0
 0000502,0.24139373,-0.20065200,-0.34678636,-0.03598685,0.00078340,0.01
 428120,0.00012163,0.00422293,0.00270152,0.00076483,0.00549758,-0.00493
 354,0.00100534,-0.02578290,-0.01618727,-0.00465639,-0.00077912,0.00002
 987,-0.00013771,-0.00016164,0.00012327,-0.00003093,-0.00012515,0.00087
 172,-0.00002166,0.00082053,0.00081212,0.00014440,-0.00003391,-0.000129
 90,-0.00002607,-0.00004120,-0.00012849,0.00001241,0.00002008,0.0000563
 3,0.00000353,0.21623142,0.34928952,-0.04215306,-0.03688414,-0.02474115
 ,0.00001258,-0.00519560,-0.00507688,-0.00206869,0.00034071,0.00252195,
 -0.00040801,0.00162971,0.00448971,0.00423354,0.00141219,-0.00394604,-0
 .00036008,-0.00016834,0.00318060,0.00040587,0.00017551,-0.00139176,-0.
 00025058,-0.00022303,0.00178591,0.00057467,-0.00004093,-0.00307389,0.0
 0017086,-0.00058240,-0.00012609,-0.00012939,0.00072717,-0.00018873,0.0
 0000501,0.00000167,-0.00004199,0.03996728,0.03880748,0.02660837\\0.,-0
 .00000002,0.,0.,0.00000002,0.,-0.00000012,-0.00000005,-0.00000002,0.,0
 .00000004,0.,0.00000013,0.00000025,0.00000002,0.00000567,-0.00000032,0
 .00000103,0.,-0.00000002,0.,0.00000004,-0.00000003,0.,0.00000002,-0.00
 000002,0.,-0.00000290,-0.00000055,-0.00000424,-0.00000420,-0.00000054,
 0.00000295,0.00000139,0.00000125,0.00000025,0.,-0.00000002,0.\\\@


 KNOWLEDGE IS OF TWO KINDS:  WE KNOW A SUBJECT OURSELVES OR WE KNOW 
 WHERE WE CAN FIND INFORMATION UPON IT.

                                    -- SAMUEL JOHNSON
 Job cpu time:       0 days  2 hours 49 minutes 27.5 seconds.
 Elapsed time:       0 days  0 hours 21 minutes 19.0 seconds.
 File lengths (MBytes):  RWF=    159 Int=      0 D2E=      0 Chk=     20 Scr=      1
 Normal termination of Gaussian 16 at Mon Sep 29 02:35:07 2025.
