 Entering Gaussian System, Link 0=/software/sse/easybuild/prefix/software/Gaussian/16.C.01-avx2-nsc1/g16/g16.orig
 Input=guanidine.wrap
 Output=guanidine.log
 Initial command:
 /software/sse/easybuild/prefix/software/Gaussian/16.C.01-avx2-nsc1/g16/l1.exe "/scratch/local/Gau-932145.inp" -scrdir="/scratch/local/"
 Entering Link 1 = /software/sse/easybuild/prefix/software/Gaussian/16.C.01-avx2-nsc1/g16/l1.exe PID=    932146.
  
 Copyright (c) 1988-2019, Gaussian, Inc.  All Rights Reserved.
  
 This is part of the Gaussian(R) 16 program.  It is based on
 the Gaussian(R) 09 system (copyright 2009, Gaussian, Inc.),
 the Gaussian(R) 03 system (copyright 2003, Gaussian, Inc.),
 the Gaussian(R) 98 system (copyright 1998, Gaussian, Inc.),
 the Gaussian(R) 94 system (copyright 1995, Gaussian, Inc.),
 the Gaussian 92(TM) system (copyright 1992, Gaussian, Inc.),
 the Gaussian 90(TM) system (copyright 1990, Gaussian, Inc.),
 the Gaussian 88(TM) system (copyright 1988, Gaussian, Inc.),
 the Gaussian 86(TM) system (copyright 1986, Carnegie Mellon
 University), and the Gaussian 82(TM) system (copyright 1983,
 Carnegie Mellon University). Gaussian is a federally registered
 trademark of Gaussian, Inc.
  
 This software contains proprietary and confidential information,
 including trade secrets, belonging to Gaussian, Inc.
  
 This software is provided under written license and may be
 used, copied, transmitted, or stored only in accord with that
 written license.
  
 The following legend is applicable only to US Government
 contracts under FAR:
  
                    RESTRICTED RIGHTS LEGEND
  
 Use, reproduction and disclosure by the US Government is
 subject to restrictions as set forth in subparagraphs (a)
 and (c) of the Commercial Computer Software - Restricted
 Rights clause in FAR 52.227-19.
  
 Gaussian, Inc.
 340 Quinnipiac St., Bldg. 40, Wallingford CT 06492
  
  
 ---------------------------------------------------------------
 Warning -- This program may not be used in any manner that
 competes with the business of Gaussian, Inc. or will provide
 assistance to any competitor of Gaussian, Inc.  The licensee
 of this program is prohibited from giving any competitor of
 Gaussian, Inc. access to this program.  By using this program,
 the user acknowledges that Gaussian, Inc. is engaged in the
 business of creating and licensing software in the field of
 computational chemistry and represents and warrants to the
 licensee that it is not a competitor of Gaussian, Inc. and that
 it will not use this program in any manner prohibited above.
 ---------------------------------------------------------------
  

 Cite this work as:
 Gaussian 16, Revision C.01,
 M. J. Frisch, G. W. Trucks, H. B. Schlegel, G. E. Scuseria, 
 M. A. Robb, J. R. Cheeseman, G. Scalmani, V. Barone, 
 G. A. Petersson, H. Nakatsuji, X. Li, M. Caricato, A. V. Marenich, 
 J. Bloino, B. G. Janesko, R. Gomperts, B. Mennucci, H. P. Hratchian, 
 J. V. Ortiz, A. F. Izmaylov, J. L. Sonnenberg, D. Williams-Young, 
 F. Ding, F. Lipparini, F. Egidi, J. Goings, B. Peng, A. Petrone, 
 T. Henderson, D. Ranasinghe, V. G. Zakrzewski, J. Gao, N. Rega, 
 G. Zheng, W. Liang, M. Hada, M. Ehara, K. Toyota, R. Fukuda, 
 J. Hasegawa, M. Ishida, T. Nakajima, Y. Honda, O. Kitao, H. Nakai, 
 T. Vreven, K. Throssell, J. A. Montgomery, Jr., J. E. Peralta, 
 F. Ogliaro, M. J. Bearpark, J. J. Heyd, E. N. Brothers, K. N. Kudin, 
 V. N. Staroverov, T. A. Keith, R. Kobayashi, J. Normand, 
 K. Raghavachari, A. P. Rendell, J. C. Burant, S. S. Iyengar, 
 J. Tomasi, M. Cossi, J. M. Millam, M. Klene, C. Adamo, R. Cammi, 
 J. W. Ochterski, R. L. Martin, K. Morokuma, O. Farkas, 
 J. B. Foresman, and D. J. Fox, Gaussian, Inc., Wallingford CT, 2019.
 
 ******************************************
 Gaussian 16:  ES64L-G16RevC.01  3-Jul-2019
                30-Sep-2025 
 ******************************************
 %mem=12000MB
 %nprocshared=16
 Will use up to   16 processors via shared memory.
 %mem=32Gb
 %chk=guanidine.chk
 ----------------------------------------------------------------------
 #P HF/aug-cc-pvtz Opt=tight Pop=(MK,Hirshfeld) iop(6/33=2) iop(6/42=6)
  maxdisk=128GB
 ----------------------------------------------------------------------
 1/7=10,18=20,19=15,38=1/1,3;
 2/9=110,12=2,17=6,18=5,40=1/2;
 3/5=16,6=1,7=10,11=9,25=1,30=1,71=1/1,2,3;
 4//1;
 5/5=2,38=5/2;
 6/7=2,8=2,9=2,10=2,15=8,20=1,28=1,33=2,42=6,79=1/1,2;
 7//1,2,3,16;
 1/7=10,18=20,19=15/3(2);
 2/9=110/2;
 99//99;
 2/9=110/2;
 3/5=16,6=1,7=10,11=9,25=1,30=1,71=1/1,2,3;
 4/5=5,16=3,69=1/1;
 5/5=2,38=5/2;
 7//1,2,3,16;
 1/7=10,18=20,19=15/3(-5);
 2/9=110/2;
 6/7=2,8=2,9=2,10=2,15=8,19=2,20=1,28=1,33=2,42=6,79=1/1,2;
 99/9=1/99;
 Leave Link    1 at Tue Sep 30 16:58:49 2025, MaxMem=  4294967296 cpu:               1.3 elap:               0.1
 (Enter /software/sse/easybuild/prefix/software/Gaussian/16.C.01-avx2-nsc1/g16/l101.exe)
 ---------
 guanidine
 ---------
 Symbolic Z-matrix:
 Charge =  0 Multiplicity = 1
 C                    -0.01906   0.1224    0.00027 
 N                    -0.94181  -0.90385   0.07326 
 N                     1.2786   -0.33497  -0.07815 
 N                    -0.2627    1.35647   0.00596 
 H                     1.94617   0.39223   0.03425 
 H                     1.47925  -1.14265   0.46501 
 H                    -1.88677  -0.6314   -0.05967 
 H                    -0.70078  -1.72806  -0.42685 
 H                    -1.24212   1.552    -0.02185 
 
 ITRead=  0  0  0  0  0  0  0  0  0
 MicOpt= -1 -1 -1 -1 -1 -1 -1 -1 -1
 NAtoms=      9 NQM=        9 NQMF=       0 NMMI=      0 NMMIF=      0
                NMic=       0 NMicF=      0.
                    Isotopes and Nuclear Properties:
 (Nuclear quadrupole moments (NQMom) in fm**2, nuclear magnetic moments (NMagM)
  in nuclear magnetons)

  Atom         1           2           3           4           5           6           7           8           9
 IAtWgt=          12          14          14          14           1           1           1           1           1
 AtmWgt=  12.0000000  14.0030740  14.0030740  14.0030740   1.0078250   1.0078250   1.0078250   1.0078250   1.0078250
 NucSpn=           0           2           2           2           1           1           1           1           1
 AtZEff=  -0.0000000  -0.0000000  -0.0000000  -0.0000000  -0.0000000  -0.0000000  -0.0000000  -0.0000000  -0.0000000
 NQMom=    0.0000000   2.0440000   2.0440000   2.0440000   0.0000000   0.0000000   0.0000000   0.0000000   0.0000000
 NMagM=    0.0000000   0.4037610   0.4037610   0.4037610   2.7928460   2.7928460   2.7928460   2.7928460   2.7928460
 AtZNuc=   6.0000000   7.0000000   7.0000000   7.0000000   1.0000000   1.0000000   1.0000000   1.0000000   1.0000000
 Leave Link  101 at Tue Sep 30 16:58:50 2025, MaxMem=  4294967296 cpu:               5.1 elap:               0.3
 (Enter /software/sse/easybuild/prefix/software/Gaussian/16.C.01-avx2-nsc1/g16/l103.exe)

 GradGradGradGradGradGradGradGradGradGradGradGradGradGradGradGradGradGrad
 Berny optimization.
 Initialization pass.
                           ----------------------------
                           !    Initial Parameters    !
                           ! (Angstroms and Degrees)  !
 --------------------------                            --------------------------
 ! Name  Definition              Value          Derivative Info.                !
 --------------------------------------------------------------------------------
 ! R1    R(1,2)                  1.382          estimate D2E/DX2                !
 ! R2    R(1,3)                  1.3781         estimate D2E/DX2                !
 ! R3    R(1,4)                  1.2579         estimate D2E/DX2                !
 ! R4    R(2,7)                  0.9924         estimate D2E/DX2                !
 ! R5    R(2,8)                  0.9937         estimate D2E/DX2                !
 ! R6    R(3,5)                  0.9935         estimate D2E/DX2                !
 ! R7    R(3,6)                  0.9938         estimate D2E/DX2                !
 ! R8    R(4,9)                  0.9991         estimate D2E/DX2                !
 ! A1    A(2,1,3)              112.6596         estimate D2E/DX2                !
 ! A2    A(2,1,4)              126.7941         estimate D2E/DX2                !
 ! A3    A(3,1,4)              120.5455         estimate D2E/DX2                !
 ! A4    A(1,2,7)              115.1398         estimate D2E/DX2                !
 ! A5    A(1,2,8)              115.3004         estimate D2E/DX2                !
 ! A6    A(7,2,8)              113.0319         estimate D2E/DX2                !
 ! A7    A(1,3,5)              112.5402         estimate D2E/DX2                !
 ! A8    A(1,3,6)              115.3873         estimate D2E/DX2                !
 ! A9    A(5,3,6)              113.4136         estimate D2E/DX2                !
 ! A10   A(1,4,9)              112.441          estimate D2E/DX2                !
 ! D1    D(3,1,2,7)           -167.7648         estimate D2E/DX2                !
 ! D2    D(3,1,2,8)            -33.3482         estimate D2E/DX2                !
 ! D3    D(4,1,2,7)             12.5532         estimate D2E/DX2                !
 ! D4    D(4,1,2,8)            146.9697         estimate D2E/DX2                !
 ! D5    D(2,1,3,5)           -169.6635         estimate D2E/DX2                !
 ! D6    D(2,1,3,6)            -37.3505         estimate D2E/DX2                !
 ! D7    D(4,1,3,5)             10.0409         estimate D2E/DX2                !
 ! D8    D(4,1,3,6)            142.3539         estimate D2E/DX2                !
 ! D9    D(2,1,4,9)             -5.8087         estimate D2E/DX2                !
 ! D10   D(3,1,4,9)            174.532          estimate D2E/DX2                !
 --------------------------------------------------------------------------------
 Trust Radius=3.00D-01 FncErr=1.00D-07 GrdErr=1.00D-07 EigMax=2.50D+02 EigMin=1.00D-04
 Number of steps in this run=     38 maximum allowed number of steps=    100.
 GradGradGradGradGradGradGradGradGradGradGradGradGradGradGradGradGradGrad

 Leave Link  103 at Tue Sep 30 16:58:50 2025, MaxMem=  4294967296 cpu:               0.2 elap:               0.0
 (Enter /software/sse/easybuild/prefix/software/Gaussian/16.C.01-avx2-nsc1/g16/l202.exe)
                          Input orientation:                          
 ---------------------------------------------------------------------
 Center     Atomic      Atomic             Coordinates (Angstroms)
 Number     Number       Type             X           Y           Z
 ---------------------------------------------------------------------
      1          6           0       -0.019060    0.122400    0.000270
      2          7           0       -0.941810   -0.903850    0.073260
      3          7           0        1.278600   -0.334970   -0.078150
      4          7           0       -0.262700    1.356470    0.005960
      5          1           0        1.946170    0.392230    0.034250
      6          1           0        1.479250   -1.142650    0.465010
      7          1           0       -1.886770   -0.631400   -0.059670
      8          1           0       -0.700780   -1.728060   -0.426850
      9          1           0       -1.242120    1.552000   -0.021850
 ---------------------------------------------------------------------
                    Distance matrix (angstroms):
                    1          2          3          4          5
     1  C    0.000000
     2  N    1.382022   0.000000
     3  N    1.378136   2.297122   0.000000
     4  N    1.257904   2.361094   2.289902   0.000000
     5  H    1.983959   3.165719   0.993531   2.410325   0.000000
     6  H    2.015259   2.464148   0.993796   3.080701   1.661152
     7  H    2.014981   0.992395   3.179273   2.567789   3.968384
     8  H    2.017765   0.993744   2.445452   3.145404   3.422658
     9  H    1.881521   2.475971   3.149263   0.999134   3.393141
                    6          7          8          9
     6  H    0.000000
     7  H    3.444816   0.000000
     8  H    2.427066   1.656519   0.000000
     9  H    3.860573   2.276893   3.349010   0.000000
 Stoichiometry    CH5N3
 Framework group  C1[X(CH5N3)]
 Deg. of freedom    21
 Full point group                 C1      NOp   1
 Largest Abelian subgroup         C1      NOp   1
 Largest concise Abelian subgroup C1      NOp   1
                         Standard orientation:                         
 ---------------------------------------------------------------------
 Center     Atomic      Atomic             Coordinates (Angstroms)
 Number     Number       Type             X           Y           Z
 ---------------------------------------------------------------------
      1          6           0       -0.019063    0.122397    0.000270
      2          7           0       -0.941790   -0.903873    0.073260
      3          7           0        1.278607   -0.334944   -0.078150
      4          7           0       -0.262731    1.356462    0.005960
      5          1           0        1.946161    0.392271    0.034250
      6          1           0        1.479275   -1.142619    0.465010
      7          1           0       -1.886757   -0.631444   -0.059670
      8          1           0       -0.700742   -1.728078   -0.426850
      9          1           0       -1.242155    1.551970   -0.021850
 ---------------------------------------------------------------------
 Rotational constants (GHZ):          10.8316089          10.3955626           5.3650780
 Leave Link  202 at Tue Sep 30 16:58:50 2025, MaxMem=  4294967296 cpu:               0.1 elap:               0.0
 (Enter /software/sse/easybuild/prefix/software/Gaussian/16.C.01-avx2-nsc1/g16/l301.exe)
 Standard basis: Aug-CC-pVTZ (5D, 7F)
 Ernie: Thresh=  0.10000D-02 Tol=  0.10000D-05 Strict=F.
 Ernie:  12 primitive shells out of 175 were deleted.
 There are   345 symmetry adapted cartesian basis functions of A   symmetry.
 There are   299 symmetry adapted basis functions of A   symmetry.
   299 basis functions,   423 primitive gaussians,   345 cartesian basis functions
    16 alpha electrons       16 beta electrons
       nuclear repulsion energy       125.4731950393 Hartrees.
 IExCor=    0 DFT=F Ex=HF Corr=None ExCW=0 ScaHFX=  1.000000
 ScaDFX=  1.000000  1.000000  1.000000  1.000000 ScalE2=  1.000000  1.000000
 IRadAn=      5 IRanWt=     -1 IRanGd=            0 ICorTp=0 IEmpDi=  4
 NAtoms=    9 NActive=    9 NUniq=    9 SFac= 1.00D+00 NAtFMM=   60 NAOKFM=F Big=F
 Integral buffers will be    131072 words long.
 Raffenetti 1 integral format.
 Two-electron integral symmetry is turned on.
 Leave Link  301 at Tue Sep 30 16:58:51 2025, MaxMem=  4294967296 cpu:               0.8 elap:               0.1
 (Enter /software/sse/easybuild/prefix/software/Gaussian/16.C.01-avx2-nsc1/g16/l302.exe)
 NPDir=0 NMtPBC=     1 NCelOv=     1 NCel=       1 NClECP=     1 NCelD=      1
         NCelK=      1 NCelE2=     1 NClLst=     1 CellRange=     0.0.
 One-electron integrals computed using PRISM.
 One-electron integral symmetry used in STVInt
 NBasis=   299 RedAO= T EigKep=  3.32D-05  NBF=   299
 NBsUse=   299 1.00D-06 EigRej= -1.00D+00 NBFU=   299
 Leave Link  302 at Tue Sep 30 16:58:51 2025, MaxMem=  4294967296 cpu:               2.6 elap:               0.2
 (Enter /software/sse/easybuild/prefix/software/Gaussian/16.C.01-avx2-nsc1/g16/l303.exe)
 DipDrv:  MaxL=1.
 Leave Link  303 at Tue Sep 30 16:58:52 2025, MaxMem=  4294967296 cpu:               0.5 elap:               0.1
 (Enter /software/sse/easybuild/prefix/software/Gaussian/16.C.01-avx2-nsc1/g16/l401.exe)
 ExpMin= 2.53D-02 ExpMax= 1.14D+04 ExpMxC= 3.89D+02 IAcc=3 IRadAn=         5 AccDes= 0.00D+00
 Harris functional with IExCor=  205 and IRadAn=       5 diagonalized for initial guess.
 HarFok:  IExCor=  205 AccDes= 0.00D+00 IRadAn=         5 IDoV= 1 UseB2=F ITyADJ=14
 ICtDFT=  3500011 ScaDFX=  1.000000  1.000000  1.000000  1.000000
 FoFCou: FMM=F IPFlag=           0 FMFlag=      100000 FMFlg1=           0
         NFxFlg=           0 DoJE=T BraDBF=F KetDBF=T FulRan=T
         wScrn=  0.000000 ICntrl=       500 IOpCl=  0 I1Cent=   200000004 NGrid=           0
         NMat0=    1 NMatS0=      1 NMatT0=    0 NMatD0=    1 NMtDS0=    0 NMtDT0=    0
 Petite list used in FoFCou.
 Harris En= -204.501569664107    
 JPrj=0 DoOrth=F DoCkMO=F.
 Leave Link  401 at Tue Sep 30 16:58:53 2025, MaxMem=  4294967296 cpu:               5.6 elap:               0.4
 (Enter /software/sse/easybuild/prefix/software/Gaussian/16.C.01-avx2-nsc1/g16/l502.exe)
 Keep R1 ints in memory in canonical form, NReq=1026496026.
 FoFCou: FMM=F IPFlag=           0 FMFlag=           0 FMFlg1=           0
         NFxFlg=           0 DoJE=F BraDBF=F KetDBF=F FulRan=T
         wScrn=  0.000000 ICntrl=       600 IOpCl=  0 I1Cent=           0 NGrid=           0
         NMat0=    1 NMatS0=  44850 NMatT0=    0 NMatD0=    1 NMtDS0=    0 NMtDT0=    0
 Symmetry not used in FoFCou.
 Two-electron integral symmetry not used.
 Closed shell SCF:
 Using DIIS extrapolation, IDIIS=  1040.
 NGot=  4294967296 LenX=  3288936947 LenY=  3288817481
 Requested convergence on RMS density matrix=1.00D-08 within 128 cycles.
 Requested convergence on MAX density matrix=1.00D-06.
 Requested convergence on             energy=1.00D-06.
 No special actions if energy rises.

 Cycle   1  Pass 1  IDiag  1:
 E= -203.970215456799    
 DIIS: error= 2.35D-02 at cycle   1 NSaved=   1.
 NSaved= 1 IEnMin= 1 EnMin= -203.970215456799     IErMin= 1 ErrMin= 2.35D-02
 ErrMax= 2.35D-02  0.00D+00 EMaxC= 1.00D-01 BMatC= 5.34D-01 BMatP= 5.34D-01
 IDIUse=3 WtCom= 7.65D-01 WtEn= 2.35D-01
 Coeff-Com:  0.100D+01
 Coeff-En:   0.100D+01
 Coeff:      0.100D+01
 Gap=     0.544 Goal=   None    Shift=    0.000
 GapD=    0.544 DampG=2.000 DampE=0.500 DampFc=1.0000 IDamp=-1.
 RMSDP=1.54D-03 MaxDP=9.28D-02              OVMax= 1.66D-01

 Cycle   2  Pass 1  IDiag  1:
 E= -204.161061584989     Delta-E=       -0.190846128190 Rises=F Damp=F
 DIIS: error= 1.03D-02 at cycle   2 NSaved=   2.
 NSaved= 2 IEnMin= 2 EnMin= -204.161061584989     IErMin= 2 ErrMin= 1.03D-02
 ErrMax= 1.03D-02  0.00D+00 EMaxC= 1.00D-01 BMatC= 7.31D-02 BMatP= 5.34D-01
 IDIUse=3 WtCom= 8.97D-01 WtEn= 1.03D-01
 Coeff-Com:  0.210D+00 0.790D+00
 Coeff-En:   0.000D+00 0.100D+01
 Coeff:      0.189D+00 0.811D+00
 Gap=     0.421 Goal=   None    Shift=    0.000
 RMSDP=6.94D-04 MaxDP=3.42D-02 DE=-1.91D-01 OVMax= 6.87D-02

 Cycle   3  Pass 1  IDiag  1:
 E= -204.212291844485     Delta-E=       -0.051230259496 Rises=F Damp=F
 DIIS: error= 4.29D-03 at cycle   3 NSaved=   3.
 NSaved= 3 IEnMin= 3 EnMin= -204.212291844485     IErMin= 3 ErrMin= 4.29D-03
 ErrMax= 4.29D-03  0.00D+00 EMaxC= 1.00D-01 BMatC= 5.36D-03 BMatP= 7.31D-02
 IDIUse=3 WtCom= 9.57D-01 WtEn= 4.29D-02
 Coeff-Com: -0.267D-01 0.174D+00 0.853D+00
 Coeff-En:   0.000D+00 0.000D+00 0.100D+01
 Coeff:     -0.255D-01 0.167D+00 0.859D+00
 Gap=     0.388 Goal=   None    Shift=    0.000
 RMSDP=1.44D-04 MaxDP=7.24D-03 DE=-5.12D-02 OVMax= 2.38D-02

 Cycle   4  Pass 1  IDiag  1:
 E= -204.216324581140     Delta-E=       -0.004032736655 Rises=F Damp=F
 DIIS: error= 9.75D-04 at cycle   4 NSaved=   4.
 NSaved= 4 IEnMin= 4 EnMin= -204.216324581140     IErMin= 4 ErrMin= 9.75D-04
 ErrMax= 9.75D-04  0.00D+00 EMaxC= 1.00D-01 BMatC= 1.83D-04 BMatP= 5.36D-03
 IDIUse=3 WtCom= 9.90D-01 WtEn= 9.75D-03
 Coeff-Com: -0.104D-01 0.395D-01 0.248D+00 0.723D+00
 Coeff-En:   0.000D+00 0.000D+00 0.000D+00 0.100D+01
 Coeff:     -0.103D-01 0.391D-01 0.246D+00 0.726D+00
 Gap=     0.389 Goal=   None    Shift=    0.000
 RMSDP=3.17D-05 MaxDP=1.36D-03 DE=-4.03D-03 OVMax= 3.97D-03

 Cycle   5  Pass 1  IDiag  1:
 E= -204.216508456629     Delta-E=       -0.000183875489 Rises=F Damp=F
 DIIS: error= 4.15D-04 at cycle   5 NSaved=   5.
 NSaved= 5 IEnMin= 5 EnMin= -204.216508456629     IErMin= 5 ErrMin= 4.15D-04
 ErrMax= 4.15D-04  0.00D+00 EMaxC= 1.00D-01 BMatC= 1.79D-05 BMatP= 1.83D-04
 IDIUse=3 WtCom= 9.96D-01 WtEn= 4.15D-03
 Coeff-Com:  0.432D-02-0.290D-01-0.148D+00-0.201D-01 0.119D+01
 Coeff-En:   0.000D+00 0.000D+00 0.000D+00 0.000D+00 0.100D+01
 Coeff:      0.430D-02-0.289D-01-0.148D+00-0.200D-01 0.119D+01
 Gap=     0.389 Goal=   None    Shift=    0.000
 RMSDP=2.24D-05 MaxDP=1.12D-03 DE=-1.84D-04 OVMax= 4.06D-03

 Cycle   6  Pass 1  IDiag  1:
 E= -204.216554170621     Delta-E=       -0.000045713991 Rises=F Damp=F
 DIIS: error= 7.07D-05 at cycle   6 NSaved=   6.
 NSaved= 6 IEnMin= 6 EnMin= -204.216554170621     IErMin= 6 ErrMin= 7.07D-05
 ErrMax= 7.07D-05  0.00D+00 EMaxC= 1.00D-01 BMatC= 1.24D-06 BMatP= 1.79D-05
 IDIUse=1 WtCom= 1.00D+00 WtEn= 0.00D+00
 Coeff-Com: -0.365D-03 0.361D-02 0.223D-01-0.646D-01-0.235D+00 0.127D+01
 Coeff:     -0.365D-03 0.361D-02 0.223D-01-0.646D-01-0.235D+00 0.127D+01
 Gap=     0.389 Goal=   None    Shift=    0.000
 RMSDP=6.87D-06 MaxDP=2.49D-04 DE=-4.57D-05 OVMax= 1.14D-03

 Cycle   7  Pass 1  IDiag  1:
 E= -204.216557709721     Delta-E=       -0.000003539100 Rises=F Damp=F
 DIIS: error= 2.69D-05 at cycle   7 NSaved=   7.
 NSaved= 7 IEnMin= 7 EnMin= -204.216557709721     IErMin= 7 ErrMin= 2.69D-05
 ErrMax= 2.69D-05  0.00D+00 EMaxC= 1.00D-01 BMatC= 9.97D-08 BMatP= 1.24D-06
 IDIUse=1 WtCom= 1.00D+00 WtEn= 0.00D+00
 Coeff-Com: -0.277D-03 0.182D-02 0.943D-02-0.108D-02-0.509D-01-0.100D+00
 Coeff-Com:  0.114D+01
 Coeff:     -0.277D-03 0.182D-02 0.943D-02-0.108D-02-0.509D-01-0.100D+00
 Coeff:      0.114D+01
 Gap=     0.389 Goal=   None    Shift=    0.000
 RMSDP=1.88D-06 MaxDP=7.73D-05 DE=-3.54D-06 OVMax= 3.61D-04

 Cycle   8  Pass 1  IDiag  1:
 E= -204.216557988391     Delta-E=       -0.000000278671 Rises=F Damp=F
 DIIS: error= 8.54D-06 at cycle   8 NSaved=   8.
 NSaved= 8 IEnMin= 8 EnMin= -204.216557988391     IErMin= 8 ErrMin= 8.54D-06
 ErrMax= 8.54D-06  0.00D+00 EMaxC= 1.00D-01 BMatC= 1.89D-08 BMatP= 9.97D-08
 IDIUse=1 WtCom= 1.00D+00 WtEn= 0.00D+00
 Coeff-Com: -0.669D-05-0.142D-03-0.120D-02 0.639D-02 0.271D-01-0.202D+00
 Coeff-Com:  0.189D+00 0.981D+00
 Coeff:     -0.669D-05-0.142D-03-0.120D-02 0.639D-02 0.271D-01-0.202D+00
 Coeff:      0.189D+00 0.981D+00
 Gap=     0.389 Goal=   None    Shift=    0.000
 RMSDP=6.59D-07 MaxDP=2.75D-05 DE=-2.79D-07 OVMax= 1.32D-04

 Cycle   9  Pass 1  IDiag  1:
 E= -204.216558031047     Delta-E=       -0.000000042656 Rises=F Damp=F
 DIIS: error= 2.40D-06 at cycle   9 NSaved=   9.
 NSaved= 9 IEnMin= 9 EnMin= -204.216558031047     IErMin= 9 ErrMin= 2.40D-06
 ErrMax= 2.40D-06  0.00D+00 EMaxC= 1.00D-01 BMatC= 1.91D-09 BMatP= 1.89D-08
 IDIUse=1 WtCom= 1.00D+00 WtEn= 0.00D+00
 Coeff-Com:  0.406D-04-0.280D-03-0.130D-02-0.112D-02 0.871D-02 0.202D-01
 Coeff-Com: -0.157D+00-0.431D-01 0.117D+01
 Coeff:      0.406D-04-0.280D-03-0.130D-02-0.112D-02 0.871D-02 0.202D-01
 Coeff:     -0.157D+00-0.431D-01 0.117D+01
 Gap=     0.389 Goal=   None    Shift=    0.000
 RMSDP=2.16D-07 MaxDP=1.13D-05 DE=-4.27D-08 OVMax= 4.53D-05

 Cycle  10  Pass 1  IDiag  1:
 E= -204.216558036165     Delta-E=       -0.000000005118 Rises=F Damp=F
 DIIS: error= 8.02D-07 at cycle  10 NSaved=  10.
 NSaved=10 IEnMin=10 EnMin= -204.216558036165     IErMin=10 ErrMin= 8.02D-07
 ErrMax= 8.02D-07  0.00D+00 EMaxC= 1.00D-01 BMatC= 1.45D-10 BMatP= 1.91D-09
 IDIUse=1 WtCom= 1.00D+00 WtEn= 0.00D+00
 Coeff-Com:  0.270D-05-0.247D-05 0.926D-04-0.730D-03-0.208D-02 0.192D-01
 Coeff-Com: -0.147D-01-0.989D-01-0.590D-01 0.116D+01
 Coeff:      0.270D-05-0.247D-05 0.926D-04-0.730D-03-0.208D-02 0.192D-01
 Coeff:     -0.147D-01-0.989D-01-0.590D-01 0.116D+01
 Gap=     0.389 Goal=   None    Shift=    0.000
 RMSDP=7.33D-08 MaxDP=2.97D-06 DE=-5.12D-09 OVMax= 1.10D-05

 Cycle  11  Pass 1  IDiag  1:
 E= -204.216558036541     Delta-E=       -0.000000000376 Rises=F Damp=F
 DIIS: error= 1.55D-07 at cycle  11 NSaved=  11.
 NSaved=11 IEnMin=11 EnMin= -204.216558036541     IErMin=11 ErrMin= 1.55D-07
 ErrMax= 1.55D-07  0.00D+00 EMaxC= 1.00D-01 BMatC= 5.15D-12 BMatP= 1.45D-10
 IDIUse=1 WtCom= 1.00D+00 WtEn= 0.00D+00
 Coeff-Com: -0.176D-05 0.125D-04 0.627D-04 0.433D-04-0.463D-03-0.107D-02
 Coeff-Com:  0.788D-02 0.335D-02-0.622D-01 0.112D-01 0.104D+01
 Coeff:     -0.176D-05 0.125D-04 0.627D-04 0.433D-04-0.463D-03-0.107D-02
 Coeff:      0.788D-02 0.335D-02-0.622D-01 0.112D-01 0.104D+01
 Gap=     0.389 Goal=   None    Shift=    0.000
 RMSDP=1.36D-08 MaxDP=5.16D-07 DE=-3.76D-10 OVMax= 1.80D-06

 Cycle  12  Pass 1  IDiag  1:
 E= -204.216558036552     Delta-E=       -0.000000000012 Rises=F Damp=F
 DIIS: error= 4.80D-08 at cycle  12 NSaved=  12.
 NSaved=12 IEnMin=12 EnMin= -204.216558036552     IErMin=12 ErrMin= 4.80D-08
 ErrMax= 4.80D-08  0.00D+00 EMaxC= 1.00D-01 BMatC= 7.55D-13 BMatP= 5.15D-12
 IDIUse=1 WtCom= 1.00D+00 WtEn= 0.00D+00
 Coeff-Com: -0.350D-06 0.131D-05-0.302D-05 0.798D-04 0.149D-03-0.191D-02
 Coeff-Com:  0.233D-02 0.930D-02-0.669D-02-0.966D-01 0.179D+00 0.914D+00
 Coeff:     -0.350D-06 0.131D-05-0.302D-05 0.798D-04 0.149D-03-0.191D-02
 Coeff:      0.233D-02 0.930D-02-0.669D-02-0.966D-01 0.179D+00 0.914D+00
 Gap=     0.389 Goal=   None    Shift=    0.000
 RMSDP=3.99D-09 MaxDP=1.53D-07 DE=-1.17D-11 OVMax= 4.81D-07

 SCF Done:  E(RHF) =  -204.216558037     A.U. after   12 cycles
            NFock= 12  Conv=0.40D-08     -V/T= 2.0005
 KE= 2.041225660743D+02 PE=-7.296557624573D+02 EE= 1.958434433072D+02
 Leave Link  502 at Tue Sep 30 16:59:12 2025, MaxMem=  4294967296 cpu:              83.1 elap:              18.5
 (Enter /software/sse/easybuild/prefix/software/Gaussian/16.C.01-avx2-nsc1/g16/l601.exe)
 Copying SCF densities to generalized density rwf, IOpCl= 0 IROHF=0.
 SCF density gives NOpUse=  1 NOpAll=  1.

 **********************************************************************

            Population analysis using the SCF Density.

 **********************************************************************

 Orbital symmetries:
 BldTbl:  Degeneracy threshold= 1.00D-02
       Occupied  (A) (A) (A) (A) (A) (A) (A) (A) (A) (A) (A) (A)
                 (A) (A) (A) (A)
       Virtual   (A) (A) (A) (A) (A) (A) (A) (A) (A) (A) (A) (A)
                 (A) (A) (A) (A) (A) (A) (A) (A) (A) (A) (A) (A)
                 (A) (A) (A) (A) (A) (A) (A) (A) (A) (A) (A) (A)
                 (A) (A) (A) (A) (A) (A) (A) (A) (A) (A) (A) (A)
                 (A) (A) (A) (A) (A) (A) (A) (A) (A) (A) (A) (A)
                 (A) (A) (A) (A) (A) (A) (A) (A) (A) (A) (A) (A)
                 (A) (A) (A) (A) (A) (A) (A) (A) (A) (A) (A) (A)
                 (A) (A) (A) (A) (A) (A) (A) (A) (A) (A) (A) (A)
                 (A) (A) (A) (A) (A) (A) (A) (A) (A) (A) (A) (A)
                 (A) (A) (A) (A) (A) (A) (A) (A) (A) (A) (A) (A)
                 (A) (A) (A) (A) (A) (A) (A) (A) (A) (A) (A) (A)
                 (A) (A) (A) (A) (A) (A) (A) (A) (A) (A) (A) (A)
                 (A) (A) (A) (A) (A) (A) (A) (A) (A) (A) (A) (A)
                 (A) (A) (A) (A) (A) (A) (A) (A) (A) (A) (A) (A)
                 (A) (A) (A) (A) (A) (A) (A) (A) (A) (A) (A) (A)
                 (A) (A) (A) (A) (A) (A) (A) (A) (A) (A) (A) (A)
                 (A) (A) (A) (A) (A) (A) (A) (A) (A) (A) (A) (A)
                 (A) (A) (A) (A) (A) (A) (A) (A) (A) (A) (A) (A)
                 (A) (A) (A) (A) (A) (A) (A) (A) (A) (A) (A) (A)
                 (A) (A) (A) (A) (A) (A) (A) (A) (A) (A) (A) (A)
                 (A) (A) (A) (A) (A) (A) (A) (A) (A) (A) (A) (A)
                 (A) (A) (A) (A) (A) (A) (A) (A) (A) (A) (A) (A)
                 (A) (A) (A) (A) (A) (A) (A) (A) (A) (A) (A) (A)
                 (A) (A) (A) (A) (A) (A) (A)
 The electronic state is 1-A.
 Alpha  occ. eigenvalues --  -15.57549 -15.56497 -15.50446 -11.33781  -1.30481
 Alpha  occ. eigenvalues --   -1.17528  -1.14132  -0.81707  -0.73817  -0.71658
 Alpha  occ. eigenvalues --   -0.63606  -0.61771  -0.56998  -0.43590  -0.42197
 Alpha  occ. eigenvalues --   -0.36558
 Alpha virt. eigenvalues --    0.02345   0.03491   0.04342   0.05655   0.06183
 Alpha virt. eigenvalues --    0.08915   0.11227   0.12263   0.12572   0.13152
 Alpha virt. eigenvalues --    0.13732   0.14326   0.15627   0.17105   0.17378
 Alpha virt. eigenvalues --    0.17625   0.18707   0.19061   0.19450   0.23082
 Alpha virt. eigenvalues --    0.24839   0.25972   0.27944   0.28652   0.29527
 Alpha virt. eigenvalues --    0.30648   0.31630   0.33321   0.33569   0.34544
 Alpha virt. eigenvalues --    0.36138   0.36473   0.37155   0.38039   0.39916
 Alpha virt. eigenvalues --    0.40332   0.41213   0.42148   0.43047   0.44052
 Alpha virt. eigenvalues --    0.44791   0.45349   0.45804   0.47910   0.48876
 Alpha virt. eigenvalues --    0.52370   0.54131   0.55012   0.56385   0.57704
 Alpha virt. eigenvalues --    0.58928   0.59531   0.61815   0.62283   0.65089
 Alpha virt. eigenvalues --    0.66101   0.68123   0.68873   0.69706   0.70564
 Alpha virt. eigenvalues --    0.72072   0.73612   0.74523   0.76956   0.78712
 Alpha virt. eigenvalues --    0.81196   0.85516   0.85973   0.86432   0.89163
 Alpha virt. eigenvalues --    0.89471   0.89853   0.92074   0.93365   0.94776
 Alpha virt. eigenvalues --    0.96848   0.97364   0.99112   0.99893   0.99976
 Alpha virt. eigenvalues --    1.01507   1.02502   1.03037   1.05676   1.06413
 Alpha virt. eigenvalues --    1.07787   1.09497   1.10468   1.11844   1.12328
 Alpha virt. eigenvalues --    1.13247   1.15431   1.16660   1.18747   1.19495
 Alpha virt. eigenvalues --    1.21715   1.22241   1.22510   1.24275   1.25224
 Alpha virt. eigenvalues --    1.26741   1.28001   1.28595   1.29602   1.34901
 Alpha virt. eigenvalues --    1.36082   1.38410   1.39865   1.41471   1.42218
 Alpha virt. eigenvalues --    1.44455   1.46733   1.47621   1.50003   1.51094
 Alpha virt. eigenvalues --    1.53930   1.54365   1.57335   1.58540   1.62477
 Alpha virt. eigenvalues --    1.65071   1.65950   1.68898   1.72145   1.75083
 Alpha virt. eigenvalues --    1.78328   1.80532   1.87173   1.88995   1.90496
 Alpha virt. eigenvalues --    1.92596   1.94840   1.95823   1.98403   1.98847
 Alpha virt. eigenvalues --    2.01585   2.03398   2.05854   2.09954   2.11475
 Alpha virt. eigenvalues --    2.12974   2.17029   2.18022   2.20079   2.22079
 Alpha virt. eigenvalues --    2.25151   2.26148   2.29129   2.30385   2.31716
 Alpha virt. eigenvalues --    2.35198   2.35405   2.36057   2.39784   2.44507
 Alpha virt. eigenvalues --    2.45203   2.48441   2.50690   2.52147   2.53972
 Alpha virt. eigenvalues --    2.56085   2.60114   2.62081   2.63119   2.65299
 Alpha virt. eigenvalues --    2.68402   2.69138   2.77952   2.82917   2.88398
 Alpha virt. eigenvalues --    3.01155   3.09834   3.20218   3.20228   3.28253
 Alpha virt. eigenvalues --    3.43359   3.49911   3.60859   3.62991   3.68756
 Alpha virt. eigenvalues --    3.73150   3.75365   3.76643   3.84320   3.84939
 Alpha virt. eigenvalues --    3.86994   3.90208   3.91313   3.95425   3.97205
 Alpha virt. eigenvalues --    3.98897   4.06428   4.12116   4.16291   4.18262
 Alpha virt. eigenvalues --    4.19091   4.21763   4.22506   4.27706   4.29637
 Alpha virt. eigenvalues --    4.32749   4.36533   4.38332   4.40064   4.41181
 Alpha virt. eigenvalues --    4.42069   4.44556   4.48077   4.49876   4.53936
 Alpha virt. eigenvalues --    4.54963   4.55903   4.57977   4.63416   4.67651
 Alpha virt. eigenvalues --    4.70727   4.72915   4.75215   4.80074   4.88949
 Alpha virt. eigenvalues --    4.90512   4.90634   4.92826   4.94327   4.96598
 Alpha virt. eigenvalues --    5.00996   5.04618   5.08380   5.10174   5.12317
 Alpha virt. eigenvalues --    5.15515   5.20882   5.23922   5.25502   5.27305
 Alpha virt. eigenvalues --    5.30349   5.33975   5.36797   5.37448   5.43345
 Alpha virt. eigenvalues --    5.45248   5.48589   5.55852   5.62435   5.64648
 Alpha virt. eigenvalues --    5.67513   5.75277   5.77532   5.78430   5.84112
 Alpha virt. eigenvalues --    5.86462   5.92996   5.97431   6.02666   6.06126
 Alpha virt. eigenvalues --    6.07605   6.09417   6.13165   6.15846   6.17411
 Alpha virt. eigenvalues --    6.25378   6.28716   6.30588   6.35626   6.37173
 Alpha virt. eigenvalues --    6.55648   6.69116   6.74468   6.83274   6.87375
 Alpha virt. eigenvalues --    6.94110   7.07935   7.08688   7.24733   7.34728
 Alpha virt. eigenvalues --    7.46206   7.66668   7.78834   7.83845  16.72615
 Alpha virt. eigenvalues --   17.50683  17.74623  19.49081
          Condensed to atoms (all electrons):
               1          2          3          4          5          6
     1  C    4.986680   0.157533   0.165628   0.359375  -0.051857   0.004476
     2  N    0.157533   6.681400  -0.066616  -0.080259  -0.006597  -0.026431
     3  N    0.165628  -0.066616   6.707828  -0.196996   0.313822   0.345158
     4  N    0.359375  -0.080259  -0.196996   7.402189  -0.011986  -0.011268
     5  H   -0.051857  -0.006597   0.313822  -0.011986   0.624851  -0.056666
     6  H    0.004476  -0.026431   0.345158  -0.011268  -0.056666   0.626671
     7  H   -0.050516   0.349909  -0.007323  -0.035896   0.006417  -0.000921
     8  H    0.014097   0.325788  -0.027213   0.007855  -0.000378   0.012231
     9  H   -0.033748  -0.048188   0.014891   0.192515  -0.002435   0.004799
               7          8          9
     1  C   -0.050516   0.014097  -0.033748
     2  N    0.349909   0.325788  -0.048188
     3  N   -0.007323  -0.027213   0.014891
     4  N   -0.035896   0.007855   0.192515
     5  H    0.006417  -0.000378  -0.002435
     6  H   -0.000921   0.012231   0.004799
     7  H    0.660126  -0.055770  -0.009359
     8  H   -0.055770   0.591134  -0.001113
     9  H   -0.009359  -0.001113   0.733197
 Mulliken charges:
               1
     1  C    0.448332
     2  N   -0.286541
     3  N   -0.249180
     4  N   -0.625530
     5  H    0.184829
     6  H    0.101950
     7  H    0.143331
     8  H    0.133368
     9  H    0.149440
 Sum of Mulliken charges =  -0.00000
 Mulliken charges with hydrogens summed into heavy atoms:
               1
     1  C    0.448332
     2  N   -0.009841
     3  N    0.037600
     4  N   -0.476090
 DipInt: DoE/N= T F RetVal/Mat= T F Init=T NMatP=  1 IDeriv=0 Min/MaxMlt=  0  4
 Entering OneElI...
 OneElI was handed  4294661810 working-precision words.
 Multipole integrals L=0 to 4 MinM= 0 MaxM= 0.
 Requested accuracy = 0.1000D-12
 ShPair: Thresh= 1.00D-13 NBox=     0 BxSize= 0.00D+00 RnKept= 7.50D+00
         NSMCal=                 5151 NSMKep=                5148
 PrmmSu-InSpLW:  IPartL=    0 NPrtUS=    1 NPrtUL=    1 DoSpLW=F IThBeg=    0 IThEnd=    0 NThAct=    1.
 PrSmSu:  IncTry=   512 NBBP=           5148 NTPThr=   100 NPartT=    1 Incr=          51 LDynOK=F GPUOK=F.
 PrsmSu:  NPrtUS=   1 ThrOK=F IAlg=2 LenDen=           0 ISkipM=0 DoSpLW=F IThBeg=    0 IThEnd=    0.
 Prism:   IPart=     0 DynPar=F LinDyn=F Incr=          51.
 PRISM was handed  4294301712 working-precision words and  5148 shell-pairs
 IPart=  0 NShTot=        5148 NBatch=          74 AvBLen=        69.6
 PrsmSu-ThDecC:  IPartSL=    0    0 NPrtUSL=    1    1 IThBeg=    0 IThEnd=    0 CPU=   -1 GPU=   -1 NThAct=    1.
 PrSmSu:  NxtVal=             52.
 Electronic moments (au):
        -32.00000000         -0.30012877         -1.16449239         -0.00409890
       -119.29277508       -115.26900108        -22.00274217         -0.73978320
          2.14013826          0.38660355        -72.60801203        -84.57772439
         -0.09360831         73.80549790         73.18378610          0.86396007
         -1.25161816          1.88052939         -0.63778543         -0.35143877
      -1048.63359281       -982.20737157        -82.84766606         -8.58579109
         10.44727104         16.06646413         -5.32720258          5.15577732
          1.02094831       -329.34684032        -96.65177870        -97.22363840
          6.15732789         -4.30811992          0.11881664
 Electronic spatial extent (au):  <R**2>=            256.5645
 DipInt: DoE/N= F T RetVal/Mat= T F Init=T NMatP=  1 IDeriv=0 Min/MaxMlt=  0  4
 Nuclear    moments (au):
         32.00000000         -0.00000000         -0.00000000          0.00000000
        106.08791167         95.44409732          1.72916835          0.00000000
         -0.00019162          0.00000088         69.43202994         60.35947424
          0.14852189        -76.75253016        -70.89588184          1.72050630
          1.39273177         -4.12267854         -2.05379418         -4.38466260
        748.28423864        574.71638645          1.02570274         16.14725623
          9.87813878        -34.42966877         15.18140733          2.51056970
          0.23301761        220.45670992          8.71927325         11.03227124
         -9.88902716         18.09071633         -1.62027147
 Total      moments (au):
         -0.00000000         -0.30012877         -1.16449239         -0.00409890
        -13.20486341        -19.82490376        -20.27357382         -0.73978320
          2.13994663          0.38660443         -3.17598210        -24.21825014
          0.05491359         -2.94703226          2.28790426          2.58446637
          0.14111361         -2.24214915         -2.69157961         -4.73610137
       -300.34935417       -407.49098512        -81.82196332          7.56146514
         20.32540981        -18.36320464          9.85420476          7.66634702
          1.25396593       -108.89013040        -87.93250545        -86.19136716
         -3.73169928         13.78259641         -1.50145483
 Traceless Quadrup. (au):
          4.56291692         -2.05712343         -2.50579349         -0.73978320
          2.13994663          0.38660443
 Charge=             -0.0000 electrons
 Dipole moment (field-independent basis, Debye):
    X=             -0.7629    Y=             -2.9598    Z=             -0.0104  Tot=              3.0566
 Quadrupole moment (field-independent basis, Debye-Ang):
   XX=            -17.7610   YY=            -26.6652   ZZ=            -27.2687
   XY=             -0.9950   XZ=              2.8783   YZ=              0.5200
 Traceless Quadrupole moment (field-independent basis, Debye-Ang):
   XX=              6.1373   YY=             -2.7669   ZZ=             -3.3704
   XY=             -0.9950   XZ=              2.8783   YZ=              0.5200
 Octapole moment (field-independent basis, Debye-Ang**2):
  XXX=             -2.2605  YYY=            -17.2376  ZZZ=              0.0391  XYY=             -2.0976
  XXY=              1.6284  XXZ=              1.8395  XZZ=              0.1004  YZZ=             -1.5959
  YYZ=             -1.9158  XYZ=             -3.3710
 Hexadecapole moment (field-independent basis, Debye-Ang**3):
 XXXX=           -113.1260 YYYY=           -153.4806 ZZZZ=            -30.8181 XXXY=              2.8480
 XXXZ=              7.6555 YYYX=             -6.9165 YYYZ=              3.7116 ZZZX=              2.8875
 ZZZY=              0.4723 XXYY=            -41.0132 XXZZ=            -33.1196 YYZZ=            -32.4638
 XXYZ=             -1.4055 YYXZ=              5.1912 ZZXY=             -0.5655
 N-N= 1.254731950393D+02 E-N=-7.296557586078D+02  KE= 2.041225660743D+02
 SetAtRh:  ITypeU=  23 NETotI=      -1 ICharg=  0 NETot=      32.
 StAtR1:  I=    1 I1=    1 IA=  6 C=   6.0 OKShel=TTT
                                                  SSP
                                                  222
 StAtR1:  I=    2 I1=    2 IA=  7 C=   7.0 OKShel=TTT
                                                  SSP
                                                  223
 StAtR1:  I=    3 I1=    3 IA=  7 C=   7.0 OKShel=TTT
                                                  SSP
                                                  223
 StAtR1:  I=    4 I1=    4 IA=  7 C=   7.0 OKShel=TTT
                                                  SSP
                                                  223
 StAtR1:  I=    5 I1=    5 IA=  1 C=   1.0 OKShel=T
                                                  S
                                                  1
 StAtR1:  I=    6 I1=    6 IA=  1 C=   1.0 OKShel=T
                                                  S
                                                  1
 StAtR1:  I=    7 I1=    7 IA=  1 C=   1.0 OKShel=T
                                                  S
                                                  1
 StAtR1:  I=    8 I1=    8 IA=  1 C=   1.0 OKShel=T
                                                  S
                                                  1
 StAtR1:  I=    9 I1=    9 IA=  1 C=   1.0 OKShel=T
                                                  S
                                                  1
          I=    1 IA=  6 I1=    1 NAtG=23 NE=   6.000 C=   6.000 Err= 1.75D-11
          I=    2 IA=  7 I1=    2 NAtG=22 NE=   7.000 C=   7.000 Err= 6.08D-13
          I=    3 IA=  7 I1=    3 NAtG=22 NE=   7.000 C=   7.000 Err= 6.08D-13
          I=    4 IA=  7 I1=    4 NAtG=22 NE=   7.000 C=   7.000 Err= 6.08D-13
          I=    5 IA=  1 I1=    5 NAtG=20 NE=   1.000 C=   1.000 Err= 2.80D-12
          I=    6 IA=  1 I1=    6 NAtG=20 NE=   1.000 C=   1.000 Err= 2.80D-12
          I=    7 IA=  1 I1=    7 NAtG=20 NE=   1.000 C=   1.000 Err= 2.80D-12
          I=    8 IA=  1 I1=    8 NAtG=20 NE=   1.000 C=   1.000 Err= 2.80D-12
          I=    9 IA=  1 I1=    9 NAtG=20 NE=   1.000 C=   1.000 Err= 2.80D-12
 Pruned (  99, 590) grid will be used in numerical quadrature.
 IPart=  0 IRanGd=          0 ScrnBf=T ScrnGd=T RCrit=4.00D+00 DoMicB=T.
 CutRad = 1000.00    CtRdIn =    0.00    XCrit =  15.00   ICut = 0
 Pruned (  99, 590) grid will be used in numerical quadrature.
 Pruned (  99, 590) grid will be used in numerical quadrature.
 Pruned (  99, 590) grid will be used in numerical quadrature.
 IPart=  1 IRanGd=          0 ScrnBf=T ScrnGd=T RCrit=4.00D+00 DoMicB=T.
 Pruned (  99, 590) grid will be used in numerical quadrature.
 Pruned (  99, 590) grid will be used in numerical quadrature.
 IPart=  0 Atom number   1 atomic number  6 has       23114 grid points.
 IPart=  3 IRanGd=          0 ScrnBf=T ScrnGd=T RCrit=4.00D+00 DoMicB=T.
 CutRad = 1000.00    CtRdIn =    0.00    XCrit =  15.00   ICut = 0
 CutRad = 1000.00    CtRdIn =    0.00    XCrit =  15.00   ICut = 0
 Pruned (  99, 590) grid will be used in numerical quadrature.
 IPart=  0 Atom   1 batch    1 overlaps    9 atoms,   101 shells and     9 DB shells.   NGrid=      2408
 IPart= 12 IRanGd=          0 ScrnBf=T ScrnGd=T RCrit=4.00D+00 DoMicB=T.
 CutRad = 1000.00    CtRdIn =    0.00    XCrit =  15.00   ICut = 0
 IPart=  8 IRanGd=          0 ScrnBf=T ScrnGd=T RCrit=4.00D+00 DoMicB=T.
 CutRad = 1000.00    CtRdIn =    0.00    XCrit =  15.00   ICut = 0
 Pruned (  99, 590) grid will be used in numerical quadrature.
 Pruned (  99, 590) grid will be used in numerical quadrature.
 IPart=  6 IRanGd=          0 ScrnBf=T ScrnGd=T RCrit=4.00D+00 DoMicB=T.
 IPart= 10 IRanGd=          0 ScrnBf=T ScrnGd=T RCrit=4.00D+00 DoMicB=T.
 CutRad = 1000.00    CtRdIn =    0.00    XCrit =  15.00   ICut = 0
 CutRad = 1000.00    CtRdIn =    0.00    XCrit =  15.00   ICut = 0
 Pruned (  99, 590) grid will be used in numerical quadrature.
 Pruned (  99, 590) grid will be used in numerical quadrature.
 IPart= 15 IRanGd=          0 ScrnBf=T ScrnGd=T RCrit=4.00D+00 DoMicB=T.
 CutRad = 1000.00    CtRdIn =    0.00    XCrit =  15.00   ICut = 0
 Pruned (  99, 590) grid will be used in numerical quadrature.
 Pruned (  99, 590) grid will be used in numerical quadrature.
 IPart= 13 IRanGd=          0 ScrnBf=T ScrnGd=T RCrit=4.00D+00 DoMicB=T.
 Pruned (  99, 590) grid will be used in numerical quadrature.
 Symmetry reduced    86 angular points to    86 for atom    1.
 IPart=  7 IRanGd=          0 ScrnBf=T ScrnGd=T RCrit=4.00D+00 DoMicB=T.
 IPart= 14 IRanGd=          0 ScrnBf=T ScrnGd=T RCrit=4.00D+00 DoMicB=T.
 CutRad = 1000.00    CtRdIn =    0.00    XCrit =  15.00   ICut = 0
 IPart=  4 IRanGd=          0 ScrnBf=T ScrnGd=T RCrit=4.00D+00 DoMicB=T.
 CutRad = 1000.00    CtRdIn =    0.00    XCrit =  15.00   ICut = 0
 Pruned (  99, 590) grid will be used in numerical quadrature.
 IPart=  2 IRanGd=          0 ScrnBf=T ScrnGd=T RCrit=4.00D+00 DoMicB=T.
 CutRad = 1000.00    CtRdIn =    0.00    XCrit =  15.00   ICut = 0
 IPart= 11 IRanGd=          0 ScrnBf=T ScrnGd=T RCrit=4.00D+00 DoMicB=T.
 CutRad = 1000.00    CtRdIn =    0.00    XCrit =  15.00   ICut = 0
 Pruned (  99, 590) grid will be used in numerical quadrature.
 Pruned (  99, 590) grid will be used in numerical quadrature.
 CutRad = 1000.00    CtRdIn =    0.00    XCrit =  15.00   ICut = 0
 IPart=  5 IRanGd=          0 ScrnBf=T ScrnGd=T RCrit=4.00D+00 DoMicB=T.
 CutRad = 1000.00    CtRdIn =    0.00    XCrit =  15.00   ICut = 0
 IPart=  9 IRanGd=          0 ScrnBf=T ScrnGd=T RCrit=4.00D+00 DoMicB=T.
 CutRad = 1000.00    CtRdIn =    0.00    XCrit =  15.00   ICut = 0
 CutRad = 1000.00    CtRdIn =    0.00    XCrit =  15.00   ICut = 0
 Pruned (  99, 590) grid will be used in numerical quadrature.
 Pruned (  99, 590) grid will be used in numerical quadrature.
 IPart=  1 Atom number   1 atomic number  6 has       23114 grid points.
 IPart=  3 Atom number   1 atomic number  6 has       23114 grid points.
 Pruned (  99, 590) grid will be used in numerical quadrature.
 IPart=  3 Atom   1 batch    3 overlaps    9 atoms,   101 shells and     9 DB shells.   NGrid=      2114
 IPart= 12 Atom number   1 atomic number  6 has       23114 grid points.
 Pruned (  99, 590) grid will be used in numerical quadrature.
 Symmetry reduced   302 angular points to   302 for atom    1.
 IPart=  8 Atom number   1 atomic number  6 has       23114 grid points.
 IPart= 12 Atom   1 batch    4 overlaps    9 atoms,   101 shells and     9 DB shells.   NGrid=      1180
 IPart=  8 Atom   1 batch    5 overlaps    9 atoms,   101 shells and     9 DB shells.   NGrid=      1180
 IPart=  1 Atom   1 batch    2 overlaps    9 atoms,   101 shells and     9 DB shells.   NGrid=      2522
 Symmetry reduced   590 angular points to   590 for atom    1.
 Pruned (  99, 590) grid will be used in numerical quadrature.
 Symmetry reduced   194 angular points to   194 for atom    1.
 Symmetry reduced   590 angular points to   590 for atom    1.
 IPart= 10 Atom number   1 atomic number  6 has       23114 grid points.
 IPart= 10 Atom   1 batch    6 overlaps    9 atoms,   101 shells and     9 DB shells.   NGrid=      1180
 Pruned (  99, 590) grid will be used in numerical quadrature.
 Symmetry reduced   590 angular points to   590 for atom    1.
 IPart= 15 Atom number   1 atomic number  6 has       23114 grid points.
 IPart= 15 Atom   1 batch    7 overlaps    9 atoms,   101 shells and     9 DB shells.   NGrid=      1180
 Symmetry reduced   590 angular points to   590 for atom    1.
 Pruned (  99, 590) grid will be used in numerical quadrature.
 IPart= 14 Atom number   1 atomic number  6 has       23114 grid points.
 Pruned (  99, 590) grid will be used in numerical quadrature.
 IPart= 14 Atom   1 batch    8 overlaps    9 atoms,   101 shells and     9 DB shells.   NGrid=      1180
 IPart=  4 Atom number   1 atomic number  6 has       23114 grid points.
 Symmetry reduced   590 angular points to   590 for atom    1.
 Pruned (  99, 590) grid will be used in numerical quadrature.
 IPart=  4 Atom   1 batch    9 overlaps    9 atoms,   101 shells and     9 DB shells.   NGrid=      1180
 IPart= 13 Atom number   1 atomic number  6 has       23114 grid points.
 Symmetry reduced   590 angular points to   590 for atom    1.
 IPart= 13 Atom   1 batch   10 overlaps    9 atoms,   101 shells and     9 DB shells.   NGrid=      1180
 Pruned (  99, 590) grid will be used in numerical quadrature.
 Symmetry reduced   590 angular points to   590 for atom    1.
 IPart= 11 Atom number   1 atomic number  6 has       23114 grid points.
 Pruned (  99, 590) grid will be used in numerical quadrature.
 Pruned (  99, 590) grid will be used in numerical quadrature.
 Pruned (  99, 590) grid will be used in numerical quadrature.
 IPart= 11 Atom   1 batch   11 overlaps    9 atoms,   100 shells and     9 DB shells.   NGrid=      1180
 Pruned (  99, 590) grid will be used in numerical quadrature.
 Symmetry reduced   590 angular points to   590 for atom    1.
 IPart=  9 Atom number   1 atomic number  6 has       23114 grid points.
 Pruned (  99, 590) grid will be used in numerical quadrature.
 IPart=  9 Atom   1 batch   15 overlaps    9 atoms,    94 shells and     9 DB shells.   NGrid=       604
 IPart=  7 Atom number   1 atomic number  6 has       23114 grid points.
 IPart=  2 Atom number   1 atomic number  6 has       23114 grid points.
 Symmetry reduced   302 angular points to   302 for atom    1.
 IPart=  2 Atom   1 batch   16 overlaps    9 atoms,    86 shells and     9 DB shells.   NGrid=       604
 IPart=  6 Atom number   1 atomic number  6 has       23114 grid points.
 IPart=  7 Atom   1 batch   12 overlaps    9 atoms,   100 shells and     9 DB shells.   NGrid=       590
 IPart=  6 Atom   1 batch   13 overlaps    9 atoms,   100 shells and     9 DB shells.   NGrid=       604
 Symmetry reduced   302 angular points to   302 for atom    1.
 Symmetry reduced   302 angular points to   302 for atom    1.
 Symmetry reduced   590 angular points to   590 for atom    1.
 IPart=  5 Atom number   1 atomic number  6 has       23114 grid points.
 IPart=  5 Atom   1 batch   14 overlaps    9 atoms,    99 shells and     9 DB shells.   NGrid=       604
 Symmetry reduced   302 angular points to   302 for atom    1.
 IPart=  2 Atom   1 batch   17 overlaps    9 atoms,    71 shells and     9 DB shells.   NGrid=       604
 IPart=  9 Atom   1 batch   18 overlaps    9 atoms,    54 shells and     9 DB shells.   NGrid=       604
 IPart=  2 Atom   1 batch   19 overlaps    9 atoms,    40 shells and     9 DB shells.   NGrid=       604
 IPart=  9 Atom   1 batch   20 overlaps    9 atoms,    24 shells and     5 DB shells.   NGrid=       604
 IPart=  7 Atom   1 batch   21 overlaps    9 atoms,    13 shells and     0 DB shells.   NGrid=       604
 Symmetry reduced   302 angular points to   302 for atom    1.
 IPart=  9 Atom   1 batch   22 overlaps    9 atoms,     5 shells and     0 DB shells.   NGrid=       604
 Pruned (  99, 590) grid will be used in numerical quadrature.
 IPart=  5 Atom number   2 atomic number  7 has       23416 grid points.
 IPart=  5 Atom   2 batch    1 overlaps    9 atoms,    98 shells and     9 DB shells.   NGrid=      2408
 Symmetry reduced    86 angular points to    86 for atom    2.
 Pruned (  99, 590) grid will be used in numerical quadrature.
 IPart=  2 Atom number   2 atomic number  7 has       23416 grid points.
 IPart=  2 Atom   2 batch    2 overlaps    9 atoms,    99 shells and     9 DB shells.   NGrid=      2522
 Symmetry reduced   194 angular points to   194 for atom    2.
 Pruned (  99, 590) grid will be used in numerical quadrature.
 IPart=  6 Atom number   2 atomic number  7 has       23416 grid points.
 IPart=  6 Atom   2 batch    3 overlaps    9 atoms,    99 shells and     9 DB shells.   NGrid=      2114
 Symmetry reduced   302 angular points to   302 for atom    2.
 Pruned (  99, 590) grid will be used in numerical quadrature.
 IPart=  9 Atom number   2 atomic number  7 has       23416 grid points.
 IPart=  9 Atom   2 batch    4 overlaps    9 atoms,    99 shells and     9 DB shells.   NGrid=      1180
 Symmetry reduced   590 angular points to   590 for atom    2.
 Pruned (  99, 590) grid will be used in numerical quadrature.
 IPart=  7 Atom number   2 atomic number  7 has       23416 grid points.
 IPart=  7 Atom   2 batch    5 overlaps    9 atoms,    99 shells and     9 DB shells.   NGrid=      1180
 Symmetry reduced   590 angular points to   590 for atom    2.
 Pruned (  99, 590) grid will be used in numerical quadrature.
 IPart= 11 Atom number   2 atomic number  7 has       23416 grid points.
 IPart= 11 Atom   2 batch    6 overlaps    9 atoms,   100 shells and     9 DB shells.   NGrid=      1180
 Symmetry reduced   590 angular points to   590 for atom    2.
 Pruned (  99, 590) grid will be used in numerical quadrature.
 IPart= 13 Atom number   2 atomic number  7 has       23416 grid points.
 IPart= 13 Atom   2 batch    7 overlaps    9 atoms,   101 shells and     9 DB shells.   NGrid=      1180
 Symmetry reduced   590 angular points to   590 for atom    2.
 Pruned (  99, 590) grid will be used in numerical quadrature.
 IPart= 15 Atom number   2 atomic number  7 has       23416 grid points.
 IPart= 15 Atom   2 batch    8 overlaps    9 atoms,   101 shells and     9 DB shells.   NGrid=      1180
 Symmetry reduced   590 angular points to   590 for atom    2.
 Pruned (  99, 590) grid will be used in numerical quadrature.
 IPart= 10 Atom number   2 atomic number  7 has       23416 grid points.
 IPart= 10 Atom   2 batch    9 overlaps    9 atoms,   101 shells and     9 DB shells.   NGrid=      1180
 Symmetry reduced   590 angular points to   590 for atom    2.
 Pruned (  99, 590) grid will be used in numerical quadrature.
 IPart= 12 Atom number   2 atomic number  7 has       23416 grid points.
 Pruned (  99, 590) grid will be used in numerical quadrature.
 IPart= 12 Atom   2 batch   10 overlaps    9 atoms,   101 shells and     9 DB shells.   NGrid=      1180
 IPart=  4 Atom number   2 atomic number  7 has       23416 grid points.
 Symmetry reduced   590 angular points to   590 for atom    2.
 IPart=  4 Atom   2 batch   11 overlaps    9 atoms,   101 shells and     9 DB shells.   NGrid=      1180
 Symmetry reduced   590 angular points to   590 for atom    2.
 Pruned (  99, 590) grid will be used in numerical quadrature.
 Pruned (  99, 590) grid will be used in numerical quadrature.
 IPart= 14 Atom number   2 atomic number  7 has       23416 grid points.
 IPart=  8 Atom number   2 atomic number  7 has       23416 grid points.
 IPart= 14 Atom   2 batch   12 overlaps    9 atoms,   100 shells and     9 DB shells.   NGrid=       590
 IPart=  8 Atom   2 batch   13 overlaps    9 atoms,   100 shells and     9 DB shells.   NGrid=       604
 Symmetry reduced   590 angular points to   590 for atom    2.
 Symmetry reduced   302 angular points to   302 for atom    2.
 IPart=  9 Atom   2 batch   14 overlaps    9 atoms,   100 shells and     9 DB shells.   NGrid=       604
 Symmetry reduced   302 angular points to   302 for atom    2.
 IPart= 14 Atom   2 batch   15 overlaps    9 atoms,    98 shells and     9 DB shells.   NGrid=       604
 Symmetry reduced   302 angular points to   302 for atom    2.
 IPart=  8 Atom   2 batch   16 overlaps    9 atoms,    95 shells and     9 DB shells.   NGrid=       604
 IPart=  7 Atom   2 batch   17 overlaps    9 atoms,    89 shells and     9 DB shells.   NGrid=       604
 Symmetry reduced   302 angular points to   302 for atom    2.
 IPart=  7 Atom   2 batch   18 overlaps    9 atoms,    73 shells and     9 DB shells.   NGrid=       604
 Pruned (  99, 590) grid will be used in numerical quadrature.
 IPart=  3 Atom number   2 atomic number  7 has       23416 grid points.
 IPart=  3 Atom   2 batch   19 overlaps    9 atoms,    56 shells and     9 DB shells.   NGrid=       604
 Symmetry reduced   302 angular points to   302 for atom    2.
 IPart=  8 Atom   2 batch   21 overlaps    9 atoms,    20 shells and     3 DB shells.   NGrid=       604
 IPart= 11 Atom   2 batch   20 overlaps    9 atoms,    36 shells and     8 DB shells.   NGrid=       604
 Symmetry reduced   302 angular points to   302 for atom    2.
 Pruned (  99, 590) grid will be used in numerical quadrature.
 IPart=  0 Atom number   2 atomic number  7 has       23416 grid points.
 IPart=  0 Atom   2 batch   22 overlaps    9 atoms,    11 shells and     0 DB shells.   NGrid=       604
 Symmetry reduced   302 angular points to   302 for atom    2.
 IPart=  3 Atom   2 batch   23 overlaps    9 atoms,     3 shells and     0 DB shells.   NGrid=       302
 Pruned (  99, 590) grid will be used in numerical quadrature.
 IPart=  8 Atom number   3 atomic number  7 has       23416 grid points.
 IPart=  8 Atom   3 batch    1 overlaps    9 atoms,    96 shells and     9 DB shells.   NGrid=      2408
 Symmetry reduced    86 angular points to    86 for atom    3.
 Pruned (  99, 590) grid will be used in numerical quadrature.
 IPart= 11 Atom number   3 atomic number  7 has       23416 grid points.
 IPart= 11 Atom   3 batch    2 overlaps    9 atoms,    99 shells and     9 DB shells.   NGrid=      2522
 Symmetry reduced   194 angular points to   194 for atom    3.
 Pruned (  99, 590) grid will be used in numerical quadrature.
 IPart=  3 Atom number   3 atomic number  7 has       23416 grid points.
 IPart=  3 Atom   3 batch    3 overlaps    9 atoms,    99 shells and     9 DB shells.   NGrid=      2114
 Symmetry reduced   302 angular points to   302 for atom    3.
 Pruned (  99, 590) grid will be used in numerical quadrature.
 IPart=  4 Atom number   3 atomic number  7 has       23416 grid points.
 IPart=  4 Atom   3 batch    4 overlaps    9 atoms,    99 shells and     9 DB shells.   NGrid=      1180
 Symmetry reduced   590 angular points to   590 for atom    3.
 Pruned (  99, 590) grid will be used in numerical quadrature.
 IPart=  0 Atom number   3 atomic number  7 has       23416 grid points.
 IPart=  0 Atom   3 batch    5 overlaps    9 atoms,    99 shells and     9 DB shells.   NGrid=      1180
 Pruned (  99, 590) grid will be used in numerical quadrature.
 Symmetry reduced   590 angular points to   590 for atom    3.
 IPart= 14 Atom number   3 atomic number  7 has       23416 grid points.
 IPart= 14 Atom   3 batch    6 overlaps    9 atoms,   101 shells and     9 DB shells.   NGrid=      1180
 Symmetry reduced   590 angular points to   590 for atom    3.
 Pruned (  99, 590) grid will be used in numerical quadrature.
 IPart=  7 Atom number   3 atomic number  7 has       23416 grid points.
 IPart=  7 Atom   3 batch    7 overlaps    9 atoms,   101 shells and     9 DB shells.   NGrid=      1180
 Symmetry reduced   590 angular points to   590 for atom    3.
 Pruned (  99, 590) grid will be used in numerical quadrature.
 IPart= 10 Atom number   3 atomic number  7 has       23416 grid points.
 IPart= 10 Atom   3 batch    8 overlaps    9 atoms,   101 shells and     9 DB shells.   NGrid=      1180
 Symmetry reduced   590 angular points to   590 for atom    3.
 Pruned (  99, 590) grid will be used in numerical quadrature.
 Pruned (  99, 590) grid will be used in numerical quadrature.
 IPart=  9 Atom number   3 atomic number  7 has       23416 grid points.
 IPart= 13 Atom number   3 atomic number  7 has       23416 grid points.
 Pruned (  99, 590) grid will be used in numerical quadrature.
 IPart= 13 Atom   3 batch   10 overlaps    9 atoms,   101 shells and     9 DB shells.   NGrid=      1180
 IPart= 15 Atom number   3 atomic number  7 has       23416 grid points.
 IPart=  9 Atom   3 batch    9 overlaps    9 atoms,   101 shells and     9 DB shells.   NGrid=      1180
 Symmetry reduced   590 angular points to   590 for atom    3.
 IPart= 15 Atom   3 batch   11 overlaps    9 atoms,   101 shells and     9 DB shells.   NGrid=      1180
 Pruned (  99, 590) grid will be used in numerical quadrature.
 Symmetry reduced   590 angular points to   590 for atom    3.
 IPart= 12 Atom number   3 atomic number  7 has       23416 grid points.
 IPart= 12 Atom   3 batch   12 overlaps    9 atoms,   100 shells and     9 DB shells.   NGrid=       590
 Symmetry reduced   590 angular points to   590 for atom    3.
 Symmetry reduced   590 angular points to   590 for atom    3.
 Pruned (  99, 590) grid will be used in numerical quadrature.
 IPart=  1 Atom number   2 atomic number  7 has       23416 grid points.
 Pruned (  99, 590) grid will be used in numerical quadrature.
 IPart=  1 Atom number   3 atomic number  7 has       23416 grid points.
 IPart=  1 Atom   3 batch   13 overlaps    9 atoms,   100 shells and     9 DB shells.   NGrid=       604
 Symmetry reduced   302 angular points to   302 for atom    3.
 Pruned (  99, 590) grid will be used in numerical quadrature.
 IPart=  5 Atom number   3 atomic number  7 has       23416 grid points.
 IPart=  5 Atom   3 batch   14 overlaps    9 atoms,   100 shells and     9 DB shells.   NGrid=       604
 Symmetry reduced   302 angular points to   302 for atom    3.
 Pruned (  99, 590) grid will be used in numerical quadrature.
 IPart=  6 Atom number   3 atomic number  7 has       23416 grid points.
 IPart=  6 Atom   3 batch   15 overlaps    9 atoms,    98 shells and     9 DB shells.   NGrid=       604
 Symmetry reduced   302 angular points to   302 for atom    3.
 Pruned (  99, 590) grid will be used in numerical quadrature.
 IPart=  2 Atom number   3 atomic number  7 has       23416 grid points.
 IPart=  2 Atom   3 batch   16 overlaps    9 atoms,    95 shells and     9 DB shells.   NGrid=       604
 Symmetry reduced   302 angular points to   302 for atom    3.
 IPart= 12 Atom   3 batch   17 overlaps    9 atoms,    89 shells and     9 DB shells.   NGrid=       604
 Symmetry reduced   302 angular points to   302 for atom    3.
 IPart=  1 Atom   3 batch   18 overlaps    9 atoms,    74 shells and     9 DB shells.   NGrid=       604
 IPart=  5 Atom   3 batch   19 overlaps    9 atoms,    56 shells and     9 DB shells.   NGrid=       604
 IPart=  6 Atom   3 batch   20 overlaps    9 atoms,    37 shells and     8 DB shells.   NGrid=       604
 IPart=  2 Atom   3 batch   21 overlaps    9 atoms,    20 shells and     3 DB shells.   NGrid=       604
 IPart= 12 Atom   3 batch   22 overlaps    9 atoms,    11 shells and     0 DB shells.   NGrid=       604
 IPart=  1 Atom   3 batch   23 overlaps    9 atoms,     3 shells and     0 DB shells.   NGrid=       302
 Pruned (  99, 590) grid will be used in numerical quadrature.
 IPart=  2 Atom number   4 atomic number  7 has       23416 grid points.
 IPart=  2 Atom   4 batch    1 overlaps    9 atoms,    97 shells and     9 DB shells.   NGrid=      2408
 Symmetry reduced    86 angular points to    86 for atom    4.
 Pruned (  99, 590) grid will be used in numerical quadrature.
 IPart=  6 Atom number   4 atomic number  7 has       23416 grid points.
 IPart=  6 Atom   4 batch    2 overlaps    9 atoms,    99 shells and     9 DB shells.   NGrid=      2522
 Symmetry reduced   194 angular points to   194 for atom    4.
 Pruned (  99, 590) grid will be used in numerical quadrature.
 IPart=  1 Atom number   4 atomic number  7 has       23416 grid points.
 IPart=  1 Atom   4 batch    3 overlaps    9 atoms,    99 shells and     9 DB shells.   NGrid=      2114
 Symmetry reduced   302 angular points to   302 for atom    4.
 Pruned (  99, 590) grid will be used in numerical quadrature.
 IPart= 12 Atom number   4 atomic number  7 has       23416 grid points.
 IPart= 12 Atom   4 batch    4 overlaps    9 atoms,    99 shells and     9 DB shells.   NGrid=      1180
 Symmetry reduced   590 angular points to   590 for atom    4.
 Pruned (  99, 590) grid will be used in numerical quadrature.
 IPart=  5 Atom number   4 atomic number  7 has       23416 grid points.
 IPart=  5 Atom   4 batch    5 overlaps    9 atoms,    99 shells and     9 DB shells.   NGrid=      1180
 Symmetry reduced   590 angular points to   590 for atom    4.
 Pruned (  99, 590) grid will be used in numerical quadrature.
 IPart=  4 Atom number   4 atomic number  7 has       23416 grid points.
 IPart=  4 Atom   4 batch    6 overlaps    9 atoms,   100 shells and     9 DB shells.   NGrid=      1180
 Symmetry reduced   590 angular points to   590 for atom    4.
 Pruned (  99, 590) grid will be used in numerical quadrature.
 IPart= 15 Atom number   4 atomic number  7 has       23416 grid points.
 IPart= 15 Atom   4 batch    7 overlaps    9 atoms,   101 shells and     9 DB shells.   NGrid=      1180
 Symmetry reduced   590 angular points to   590 for atom    4.
 Pruned (  99, 590) grid will be used in numerical quadrature.
 IPart=  0 Atom number   4 atomic number  7 has       23416 grid points.
 IPart=  0 Atom   4 batch    8 overlaps    9 atoms,   101 shells and     9 DB shells.   NGrid=      1180
 Symmetry reduced   590 angular points to   590 for atom    4.
 Pruned (  99, 590) grid will be used in numerical quadrature.
 IPart= 14 Atom number   4 atomic number  7 has       23416 grid points.
 IPart= 14 Atom   4 batch    9 overlaps    9 atoms,   101 shells and     9 DB shells.   NGrid=      1180
 Symmetry reduced   590 angular points to   590 for atom    4.
 Pruned (  99, 590) grid will be used in numerical quadrature.
 IPart= 13 Atom number   4 atomic number  7 has       23416 grid points.
 IPart= 13 Atom   4 batch   10 overlaps    9 atoms,   101 shells and     9 DB shells.   NGrid=      1180
 Symmetry reduced   590 angular points to   590 for atom    4.
 Pruned (  99, 590) grid will be used in numerical quadrature.
 IPart=  7 Atom number   4 atomic number  7 has       23416 grid points.
 IPart=  7 Atom   4 batch   11 overlaps    9 atoms,   101 shells and     9 DB shells.   NGrid=      1180
 Symmetry reduced   590 angular points to   590 for atom    4.
 Pruned (  99, 590) grid will be used in numerical quadrature.
 IPart=  9 Atom number   4 atomic number  7 has       23416 grid points.
 IPart=  9 Atom   4 batch   12 overlaps    9 atoms,   100 shells and     9 DB shells.   NGrid=       590
 Symmetry reduced   590 angular points to   590 for atom    4.
 Pruned (  99, 590) grid will be used in numerical quadrature.
 IPart= 10 Atom number   4 atomic number  7 has       23416 grid points.
 IPart= 10 Atom   4 batch   13 overlaps    9 atoms,   100 shells and     9 DB shells.   NGrid=       604
 Symmetry reduced   302 angular points to   302 for atom    4.
 IPart=  9 Atom   4 batch   14 overlaps    9 atoms,   100 shells and     9 DB shells.   NGrid=       604
 Symmetry reduced   302 angular points to   302 for atom    4.
 IPart= 10 Atom   4 batch   15 overlaps    9 atoms,    98 shells and     9 DB shells.   NGrid=       604
 Pruned (  99, 590) grid will be used in numerical quadrature.
 IPart=  8 Atom number   4 atomic number  7 has       23416 grid points.
 IPart=  8 Atom   4 batch   16 overlaps    9 atoms,    95 shells and     9 DB shells.   NGrid=       604
 Symmetry reduced   302 angular points to   302 for atom    4.
 Pruned (  99, 590) grid will be used in numerical quadrature.
 IPart=  3 Atom number   4 atomic number  7 has       23416 grid points.
 IPart=  3 Atom   4 batch   17 overlaps    9 atoms,    91 shells and     9 DB shells.   NGrid=       604
 Symmetry reduced   302 angular points to   302 for atom    4.
 Pruned (  99, 590) grid will be used in numerical quadrature.
 IPart= 11 Atom number   4 atomic number  7 has       23416 grid points.
 IPart= 11 Atom   4 batch   18 overlaps    9 atoms,    76 shells and     9 DB shells.   NGrid=       604
 Symmetry reduced   302 angular points to   302 for atom    4.
 IPart= 12 Atom   4 batch   19 overlaps    9 atoms,    58 shells and     9 DB shells.   NGrid=       604
 Symmetry reduced   302 angular points to   302 for atom    4.
 IPart=  5 Atom   4 batch   20 overlaps    9 atoms,    38 shells and     8 DB shells.   NGrid=       604
 Symmetry reduced   302 angular points to   302 for atom    4.
 IPart=  4 Atom   4 batch   21 overlaps    9 atoms,    22 shells and     4 DB shells.   NGrid=       604
 Symmetry reduced   302 angular points to   302 for atom    4.
 IPart=  3 Atom   4 batch   22 overlaps    9 atoms,    11 shells and     0 DB shells.   NGrid=       604
 IPart=  5 Atom   4 batch   23 overlaps    9 atoms,     4 shells and     0 DB shells.   NGrid=       302
 Pruned (  99, 590) grid will be used in numerical quadrature.
 IPart=  4 Atom number   5 atomic number  1 has       23466 grid points.
 IPart=  4 Atom   5 batch    1 overlaps    9 atoms,    89 shells and     9 DB shells.   NGrid=      2838
 Symmetry reduced    86 angular points to    86 for atom    5.
 Pruned (  99, 590) grid will be used in numerical quadrature.
 IPart=  5 Atom number   5 atomic number  1 has       23466 grid points.
 IPart=  5 Atom   5 batch    2 overlaps    9 atoms,    90 shells and     9 DB shells.   NGrid=      1552
 Symmetry reduced   194 angular points to   194 for atom    5.
 Pruned (  99, 590) grid will be used in numerical quadrature.
 IPart=  3 Atom number   5 atomic number  1 has       23466 grid points.
 IPart=  3 Atom   5 batch    3 overlaps    9 atoms,    94 shells and     9 DB shells.   NGrid=      2416
 Pruned (  99, 590) grid will be used in numerical quadrature.
 Symmetry reduced   302 angular points to   302 for atom    5.
 IPart= 12 Atom number   5 atomic number  1 has       23466 grid points.
 IPart= 12 Atom   5 batch    4 overlaps    9 atoms,    97 shells and     9 DB shells.   NGrid=      1180
 Symmetry reduced   590 angular points to   590 for atom    5.
 Pruned (  99, 590) grid will be used in numerical quadrature.
 IPart=  8 Atom number   5 atomic number  1 has       23466 grid points.
 IPart=  8 Atom   5 batch    5 overlaps    9 atoms,    97 shells and     9 DB shells.   NGrid=      1180
 Symmetry reduced   590 angular points to   590 for atom    5.
 Pruned (  99, 590) grid will be used in numerical quadrature.
 IPart= 15 Atom number   5 atomic number  1 has       23466 grid points.
 IPart= 15 Atom   5 batch    6 overlaps    9 atoms,    97 shells and     9 DB shells.   NGrid=      1180
 Symmetry reduced   590 angular points to   590 for atom    5.
 Pruned (  99, 590) grid will be used in numerical quadrature.
 IPart= 10 Atom number   5 atomic number  1 has       23466 grid points.
 IPart= 10 Atom   5 batch    7 overlaps    9 atoms,    99 shells and     9 DB shells.   NGrid=      1180
 Symmetry reduced   590 angular points to   590 for atom    5.
 Pruned (  99, 590) grid will be used in numerical quadrature.
 IPart=  0 Atom number   5 atomic number  1 has       23466 grid points.
 IPart=  0 Atom   5 batch    8 overlaps    9 atoms,   100 shells and     9 DB shells.   NGrid=      1180
 Symmetry reduced   590 angular points to   590 for atom    5.
 Pruned (  99, 590) grid will be used in numerical quadrature.
 IPart=  7 Atom number   5 atomic number  1 has       23466 grid points.
 IPart=  7 Atom   5 batch    9 overlaps    9 atoms,   100 shells and     9 DB shells.   NGrid=      1180
 Symmetry reduced   590 angular points to   590 for atom    5.
 Pruned (  99, 590) grid will be used in numerical quadrature.
 IPart= 11 Atom number   5 atomic number  1 has       23466 grid points.
 IPart= 11 Atom   5 batch   10 overlaps    9 atoms,   100 shells and     9 DB shells.   NGrid=      1180
 Symmetry reduced   590 angular points to   590 for atom    5.
 Pruned (  99, 590) grid will be used in numerical quadrature.
 IPart= 13 Atom number   5 atomic number  1 has       23466 grid points.
 IPart= 13 Atom   5 batch   11 overlaps    9 atoms,   101 shells and     9 DB shells.   NGrid=      1180
 Symmetry reduced   590 angular points to   590 for atom    5.
 Pruned (  99, 590) grid will be used in numerical quadrature.
 IPart= 14 Atom number   5 atomic number  1 has       23466 grid points.
 IPart= 14 Atom   5 batch   12 overlaps    9 atoms,   101 shells and     9 DB shells.   NGrid=      1180
 Symmetry reduced   590 angular points to   590 for atom    5.
 Pruned (  99, 590) grid will be used in numerical quadrature.
 IPart=  9 Atom number   5 atomic number  1 has       23466 grid points.
 IPart=  9 Atom   5 batch   13 overlaps    9 atoms,   101 shells and     9 DB shells.   NGrid=       604
 Symmetry reduced   302 angular points to   302 for atom    5.
 Pruned (  99, 590) grid will be used in numerical quadrature.
 IPart=  2 Atom number   5 atomic number  1 has       23466 grid points.
 IPart=  2 Atom   5 batch   14 overlaps    9 atoms,   100 shells and     9 DB shells.   NGrid=       604
 Symmetry reduced   302 angular points to   302 for atom    5.
 Pruned (  99, 590) grid will be used in numerical quadrature.
 IPart=  1 Atom number   5 atomic number  1 has       23466 grid points.
 IPart=  1 Atom   5 batch   15 overlaps    9 atoms,    97 shells and     9 DB shells.   NGrid=       604
 Symmetry reduced   302 angular points to   302 for atom    5.
 IPart=  9 Atom   5 batch   16 overlaps    9 atoms,    92 shells and     9 DB shells.   NGrid=       604
 Pruned (  99, 590) grid will be used in numerical quadrature.
 IPart=  6 Atom number   5 atomic number  1 has       23466 grid points.
 IPart=  6 Atom   5 batch   17 overlaps    9 atoms,    84 shells and     9 DB shells.   NGrid=       604
 Symmetry reduced   302 angular points to   302 for atom    5.
 IPart= 12 Atom   5 batch   18 overlaps    9 atoms,    66 shells and     9 DB shells.   NGrid=       604
 Symmetry reduced   302 angular points to   302 for atom    5.
 IPart=  8 Atom   5 batch   19 overlaps    9 atoms,    45 shells and     8 DB shells.   NGrid=       604
 Symmetry reduced   302 angular points to   302 for atom    5.
 IPart= 15 Atom   5 batch   20 overlaps    9 atoms,    26 shells and     4 DB shells.   NGrid=       604
 Symmetry reduced   302 angular points to   302 for atom    5.
 IPart=  1 Atom   5 batch   21 overlaps    9 atoms,    12 shells and     0 DB shells.   NGrid=       604
 IPart= 10 Atom   5 batch   22 overlaps    9 atoms,     4 shells and     0 DB shells.   NGrid=       604
 Pruned (  99, 590) grid will be used in numerical quadrature.
 Symmetry reduced   302 angular points to   302 for atom    5.
 IPart=  6 Atom number   6 atomic number  1 has       23466 grid points.
 Pruned (  99, 590) grid will be used in numerical quadrature.
 IPart=  6 Atom   6 batch    2 overlaps    9 atoms,    92 shells and     9 DB shells.   NGrid=      1552
 IPart=  8 Atom number   6 atomic number  1 has       23466 grid points.
 Symmetry reduced   194 angular points to   194 for atom    6.
 IPart=  8 Atom   6 batch    1 overlaps    9 atoms,    90 shells and     9 DB shells.   NGrid=      2838
 Symmetry reduced    86 angular points to    86 for atom    6.
 Pruned (  99, 590) grid will be used in numerical quadrature.
 IPart= 15 Atom number   6 atomic number  1 has       23466 grid points.
 IPart= 15 Atom   6 batch    3 overlaps    9 atoms,    96 shells and     9 DB shells.   NGrid=      2416
 Symmetry reduced   302 angular points to   302 for atom    6.
 Pruned (  99, 590) grid will be used in numerical quadrature.
 IPart=  9 Atom number   6 atomic number  1 has       23466 grid points.
 Pruned (  99, 590) grid will be used in numerical quadrature.
 IPart=  9 Atom   6 batch    4 overlaps    9 atoms,    97 shells and     9 DB shells.   NGrid=      1180
 IPart=  7 Atom number   6 atomic number  1 has       23466 grid points.
 Symmetry reduced   590 angular points to   590 for atom    6.
 IPart=  7 Atom   6 batch    5 overlaps    9 atoms,    97 shells and     9 DB shells.   NGrid=      1180
 Symmetry reduced   590 angular points to   590 for atom    6.
 Pruned (  99, 590) grid will be used in numerical quadrature.
 IPart= 14 Atom number   6 atomic number  1 has       23466 grid points.
 IPart= 14 Atom   6 batch    6 overlaps    9 atoms,    98 shells and     9 DB shells.   NGrid=      1180
 Symmetry reduced   590 angular points to   590 for atom    6.
 Pruned (  99, 590) grid will be used in numerical quadrature.
 IPart=  2 Atom number   6 atomic number  1 has       23466 grid points.
 IPart=  2 Atom   6 batch    7 overlaps    9 atoms,    99 shells and     9 DB shells.   NGrid=      1180
 Pruned (  99, 590) grid will be used in numerical quadrature.
 Symmetry reduced   590 angular points to   590 for atom    6.
 IPart= 12 Atom number   6 atomic number  1 has       23466 grid points.
 IPart= 12 Atom   6 batch    8 overlaps    9 atoms,   100 shells and     9 DB shells.   NGrid=      1180
 Symmetry reduced   590 angular points to   590 for atom    6.
 Pruned (  99, 590) grid will be used in numerical quadrature.
 IPart= 11 Atom number   6 atomic number  1 has       23466 grid points.
 IPart= 11 Atom   6 batch    9 overlaps    9 atoms,   100 shells and     9 DB shells.   NGrid=      1180
 Symmetry reduced   590 angular points to   590 for atom    6.
 Pruned (  99, 590) grid will be used in numerical quadrature.
 IPart=  1 Atom number   6 atomic number  1 has       23466 grid points.
 IPart=  1 Atom   6 batch   10 overlaps    9 atoms,   101 shells and     9 DB shells.   NGrid=      1180
 Symmetry reduced   590 angular points to   590 for atom    6.
 Pruned (  99, 590) grid will be used in numerical quadrature.
 IPart= 10 Atom number   6 atomic number  1 has       23466 grid points.
 IPart= 10 Atom   6 batch   11 overlaps    9 atoms,   101 shells and     9 DB shells.   NGrid=      1180
 Symmetry reduced   590 angular points to   590 for atom    6.
 Pruned (  99, 590) grid will be used in numerical quadrature.
 IPart=  5 Atom number   6 atomic number  1 has       23466 grid points.
 IPart=  5 Atom   6 batch   12 overlaps    9 atoms,   101 shells and     9 DB shells.   NGrid=      1180
 Symmetry reduced   590 angular points to   590 for atom    6.
 Pruned (  99, 590) grid will be used in numerical quadrature.
 IPart=  0 Atom number   6 atomic number  1 has       23466 grid points.
 IPart=  0 Atom   6 batch   13 overlaps    9 atoms,   101 shells and     9 DB shells.   NGrid=       604
 Symmetry reduced   302 angular points to   302 for atom    6.
 Pruned (  99, 590) grid will be used in numerical quadrature.
 IPart= 13 Atom number   6 atomic number  1 has       23466 grid points.
 IPart= 13 Atom   6 batch   14 overlaps    9 atoms,   100 shells and     9 DB shells.   NGrid=       604
 Symmetry reduced   302 angular points to   302 for atom    6.
 IPart= 13 Atom   6 batch   15 overlaps    9 atoms,    97 shells and     9 DB shells.   NGrid=       604
 IPart=  0 Atom   6 batch   16 overlaps    9 atoms,    92 shells and     9 DB shells.   NGrid=       604
 Pruned (  99, 590) grid will be used in numerical quadrature.
 IPart=  3 Atom number   6 atomic number  1 has       23466 grid points.
 IPart=  3 Atom   6 batch   17 overlaps    9 atoms,    84 shells and     9 DB shells.   NGrid=       604
 Symmetry reduced   302 angular points to   302 for atom    6.
 Pruned (  99, 590) grid will be used in numerical quadrature.
 IPart=  4 Atom number   6 atomic number  1 has       23466 grid points.
 IPart=  4 Atom   6 batch   18 overlaps    9 atoms,    65 shells and     9 DB shells.   NGrid=       604
 Symmetry reduced   302 angular points to   302 for atom    6.
 IPart=  0 Atom   6 batch   19 overlaps    9 atoms,    43 shells and     8 DB shells.   NGrid=       604
 IPart=  7 Atom   6 batch   20 overlaps    9 atoms,    25 shells and     4 DB shells.   NGrid=       604
 IPart= 13 Atom   6 batch   21 overlaps    9 atoms,    12 shells and     0 DB shells.   NGrid=       604
 Symmetry reduced   302 angular points to   302 for atom    6.
 IPart=  9 Atom   6 batch   22 overlaps    9 atoms,     4 shells and     0 DB shells.   NGrid=       604
 Symmetry reduced   302 angular points to   302 for atom    6.
 Pruned (  99, 590) grid will be used in numerical quadrature.
 IPart=  3 Atom number   7 atomic number  1 has       23466 grid points.
 IPart=  3 Atom   7 batch    1 overlaps    9 atoms,    90 shells and     9 DB shells.   NGrid=      2838
 Symmetry reduced    86 angular points to    86 for atom    7.
 Pruned (  99, 590) grid will be used in numerical quadrature.
 IPart=  4 Atom number   7 atomic number  1 has       23466 grid points.
 IPart=  4 Atom   7 batch    2 overlaps    9 atoms,    92 shells and     9 DB shells.   NGrid=      1552
 Symmetry reduced   194 angular points to   194 for atom    7.
 Pruned (  99, 590) grid will be used in numerical quadrature.
 IPart= 14 Atom number   7 atomic number  1 has       23466 grid points.
 IPart= 14 Atom   7 batch    3 overlaps    9 atoms,    94 shells and     9 DB shells.   NGrid=      2416
 Symmetry reduced   302 angular points to   302 for atom    7.
 Pruned (  99, 590) grid will be used in numerical quadrature.
 IPart=  7 Atom number   7 atomic number  1 has       23466 grid points.
 IPart=  7 Atom   7 batch    4 overlaps    9 atoms,    97 shells and     9 DB shells.   NGrid=      1180
 Symmetry reduced   590 angular points to   590 for atom    7.
 Pruned (  99, 590) grid will be used in numerical quadrature.
 IPart= 10 Atom number   7 atomic number  1 has       23466 grid points.
[...]
 3331 Fit       0.020416
 3332 Fit       0.020387
 3333 Fit       0.020237
 3334 Fit       0.019978
 3335 Fit       0.019653
 3336 Fit       0.019342
 3337 Fit       0.020517
 3338 Fit       0.020637
 3339 Fit       0.020823
 3340 Fit       0.020949
 3341 Fit       0.020970
 3342 Fit       0.020891
 3343 Fit       0.020755
 3344 Fit       0.020648
 3345 Fit       0.020708
 3346 Fit       0.019979
 3347 Fit       0.020341
 3348 Fit       0.020705
 3349 Fit       0.020976
 3350 Fit       0.021128
 3351 Fit       0.021185
 3352 Fit       0.021214
 3353 Fit       0.021335
 3354 Fit       0.018680
 3355 Fit       0.019441
 3356 Fit       0.020060
 3357 Fit       0.020515
 3358 Fit       0.020821
 3359 Fit       0.021025
 3360 Fit       0.021221
 3361 Fit       0.021560
 3362 Fit       0.016338
 3363 Fit       0.017788
 3364 Fit       0.018832
 3365 Fit       0.019570
 3366 Fit       0.020078
 3367 Fit       0.020453
 3368 Fit       0.020840
 3369 Fit       0.013019
 3370 Fit       0.015437
 3371 Fit       0.017066
 3372 Fit       0.018169
 3373 Fit       0.018917
 3374 Fit       0.019471
 3375 Fit       0.013529
 3376 Fit       0.015579
 3377 Fit       0.016901
 3378 Fit       0.017765
 3379 Fit       0.015279
 3380 Fit       0.016960
 3381 Fit       0.015628
 3382 Fit       0.016338
 3383 Fit       0.017204
 3384 Fit       0.018267
 3385 Fit       0.019672
 3386 Fit       0.021732
 3387 Fit       0.017861
 3388 Fit       0.018272
 3389 Fit       0.018801
 3390 Fit       0.019424
 3391 Fit       0.020168
 3392 Fit       0.021124
 3393 Fit       0.022485
 3394 Fit       0.019620
 3395 Fit       0.019534
 3396 Fit       0.019685
 3397 Fit       0.019958
 3398 Fit       0.020284
 3399 Fit       0.020626
 3400 Fit       0.020971
 3401 Fit       0.021329
 3402 Fit       0.021723
 3403 Fit       0.020947
 3404 Fit       0.020725
 3405 Fit       0.020742
 3406 Fit       0.020868
 3407 Fit       0.021011
 3408 Fit       0.021103
 3409 Fit       0.021087
 3410 Fit       0.020897
 3411 Fit       0.020424
 3412 Fit       0.019438
 3413 Fit       0.021786
 3414 Fit       0.021391
 3415 Fit       0.021274
 3416 Fit       0.021283
 3417 Fit       0.021301
 3418 Fit       0.021231
 3419 Fit       0.020980
 3420 Fit       0.020437
 3421 Fit       0.019428
 3422 Fit       0.017632
 3423 Fit       0.021460
 3424 Fit       0.021298
 3425 Fit       0.021253
 3426 Fit       0.021207
 3427 Fit       0.021049
 3428 Fit       0.020670
 3429 Fit       0.019939
 3430 Fit       0.018666
 3431 Fit       0.016537
 3432 Fit       0.013013
 3433 Fit       0.020737
 3434 Fit       0.020708
 3435 Fit       0.020708
 3436 Fit       0.020626
 3437 Fit       0.020340
 3438 Fit       0.019705
 3439 Fit       0.018537
 3440 Fit       0.016565
 3441 Fit       0.013372
 3442 Fit       0.019459
 3443 Fit       0.019618
 3444 Fit       0.019564
 3445 Fit       0.019175
 3446 Fit       0.018282
 3447 Fit       0.016657
 3448 Fit       0.013988
 3449 Fit       0.009894
 3450 Fit       0.017796
 3451 Fit       0.018038
 3452 Fit       0.017753
 3453 Fit       0.016766
 3454 Fit       0.014824
 3455 Fit       0.011648
 3456 Fit       0.007145
 3457 Fit       0.005493
 3458 Fit       0.015405
 3459 Fit       0.015937
 3460 Fit       0.015313
 3461 Fit       0.013292
 3462 Fit       0.009765
 3463 Fit       0.008119
 3464 Fit       0.013320
 3465 Fit       0.011729
 3466 Fit       0.010176
 3467 Fit      -0.004825
 3468 Fit      -0.004929
 3469 Fit      -0.001589
 3470 Fit       0.001025
 3471 Fit       0.002925
 3472 Fit       0.003875
 3473 Fit      -0.008817
 3474 Fit      -0.004461
 3475 Fit      -0.000822
 3476 Fit       0.002265
 3477 Fit       0.004952
 3478 Fit       0.007354
 3479 Fit       0.009449
 3480 Fit      -0.008815
 3481 Fit      -0.004440
 3482 Fit      -0.000712
 3483 Fit       0.002531
 3484 Fit       0.005453
 3485 Fit       0.008236
 3486 Fit       0.011087
 3487 Fit       0.014223
 3488 Fit      -0.006105
 3489 Fit      -0.002000
 3490 Fit       0.001558
 3491 Fit       0.004736
 3492 Fit       0.007719
 3493 Fit       0.010736
 3494 Fit       0.014099
 3495 Fit      -0.008341
 3496 Fit      -0.003923
 3497 Fit      -0.000107
 3498 Fit       0.003262
 3499 Fit       0.006348
 3500 Fit       0.009338
 3501 Fit       0.012486
 3502 Fit       0.016166
 3503 Fit      -0.009488
 3504 Fit      -0.004925
 3505 Fit      -0.000986
 3506 Fit       0.002484
 3507 Fit       0.005637
 3508 Fit       0.008645
 3509 Fit       0.011728
 3510 Fit       0.015205
 3511 Fit       0.019594
 3512 Fit      -0.007948
 3513 Fit      -0.003514
 3514 Fit       0.000335
 3515 Fit       0.003760
 3516 Fit       0.006928
 3517 Fit       0.010040
 3518 Fit       0.013369
 3519 Fit       0.017332
 3520 Fit      -0.010137
 3521 Fit      -0.005294
 3522 Fit      -0.001129
 3523 Fit       0.002532
 3524 Fit       0.005869
 3525 Fit       0.009089
 3526 Fit       0.012462
 3527 Fit       0.016380
 3528 Fit      -0.007596
 3529 Fit      -0.003144
 3530 Fit       0.000726
 3531 Fit       0.004191
 3532 Fit       0.007450
 3533 Fit       0.010740
 3534 Fit       0.014372
 3535 Fit      -0.007127
 3536 Fit      -0.002618
 3537 Fit       0.001286
 3538 Fit       0.004790
 3539 Fit       0.008120
 3540 Fit       0.011518
 3541 Fit       0.015189
 3542 Fit      -0.006869
 3543 Fit      -0.002416
 3544 Fit       0.001389
 3545 Fit       0.004738
 3546 Fit       0.007775
 3547 Fit       0.010472
 3548 Fit      -0.001165
 3549 Fit       0.002010
 -----------------------------------------------------------------
 Leave Link  602 at Tue Sep 30 16:59:12 2025, MaxMem=  4294967296 cpu:               2.2 elap:               0.2
 (Enter /software/sse/easybuild/prefix/software/Gaussian/16.C.01-avx2-nsc1/g16/l701.exe)
 ... and contract with generalized density number  0.
 Compute integral first derivatives.
 Leave Link  701 at Tue Sep 30 16:59:13 2025, MaxMem=  4294967296 cpu:               2.3 elap:               0.2
 (Enter /software/sse/easybuild/prefix/software/Gaussian/16.C.01-avx2-nsc1/g16/l702.exe)
 L702 exits ... SP integral derivatives will be done elsewhere.
 Leave Link  702 at Tue Sep 30 16:59:13 2025, MaxMem=  4294967296 cpu:               0.3 elap:               0.0
 (Enter /software/sse/easybuild/prefix/software/Gaussian/16.C.01-avx2-nsc1/g16/l703.exe)
 Integral derivatives from FoFJK, PRISM(SPDF).
 Compute integral first derivatives, UseDBF=F ICtDFT=           0.
 Calling FoFJK, ICntrl=      2127 FMM=F ISym2X=0 I1Cent= 0 IOpClX= 0 NMat=1 NMatS=1 NMatT=0.
 FoFJK:  IHMeth= 1 ICntrl=    2127 DoSepK=F KAlg= 0 I1Cent=           0 FoldK=F
 IRaf=         0 NMat=       1 IRICut=       1 DoRegI=T DoRafI=F ISym2E= 0 IDoP0=0 IntGTp=1.
 FoFCou: FMM=F IPFlag=           0 FMFlag=      100000 FMFlg1=         800
         NFxFlg=           0 DoJE=F BraDBF=F KetDBF=F FulRan=T
         wScrn=  0.000000 ICntrl=      2127 IOpCl=  0 I1Cent=           0 NGrid=           0
         NMat0=    1 NMatS0=      1 NMatT0=    0 NMatD0=    1 NMtDS0=    0 NMtDT0=    0
 Symmetry not used in FoFCou.
 Leave Link  703 at Tue Sep 30 16:59:24 2025, MaxMem=  4294967296 cpu:             171.8 elap:              10.8
 (Enter /software/sse/easybuild/prefix/software/Gaussian/16.C.01-avx2-nsc1/g16/l716.exe)
 Dipole        =-3.00128768D-01-1.16449239D+00-4.09889922D-03
 ***** Axes restored to original set *****
 -------------------------------------------------------------------
 Center     Atomic                   Forces (Hartrees/Bohr)
 Number     Number              X              Y              Z
 -------------------------------------------------------------------
      1        6           0.000000450    0.000003482    0.000002501
      2        7          -0.000006066   -0.000002604   -0.000002600
      3        7           0.000004479    0.000000035    0.000000325
      4        7           0.000000455   -0.000002507   -0.000001276
      5        1          -0.000000487   -0.000000968   -0.000000177
      6        1          -0.000000630    0.000001512   -0.000000914
      7        1           0.000002387   -0.000000667    0.000000806
      8        1          -0.000000159    0.000001363    0.000001048
      9        1          -0.000000427    0.000000353    0.000000286
 -------------------------------------------------------------------
 Cartesian Forces:  Max     0.000006066 RMS     0.000002038
 Leave Link  716 at Tue Sep 30 16:59:24 2025, MaxMem=  4294967296 cpu:               0.3 elap:               0.0
 (Enter /software/sse/easybuild/prefix/software/Gaussian/16.C.01-avx2-nsc1/g16/l103.exe)

 GradGradGradGradGradGradGradGradGradGradGradGradGradGradGradGradGradGrad
 Berny optimization.
 FormGI is forming the generalized inverse of G from B-inverse, IUseBI=4.
 Internal  Forces:  Max     0.000003940 RMS     0.000001391
 Search for a local minimum.
 Step number   1 out of a maximum of   38
 All quantities printed in internal units (Hartrees-Bohrs-Radians)
 RMS Force = .13912D-05 SwitMx=.10000D-02 MixMth= 2
 Mixed Optimization -- En-DIIS/RFO-DIIS
 Second derivative matrix not updated -- first step.
 ITU=  0
     Eigenvalues ---    0.01930   0.01981   0.02334   0.03571   0.04278
     Eigenvalues ---    0.04657   0.16000   0.16000   0.16000   0.16000
     Eigenvalues ---    0.16000   0.25000   0.25000   0.47841   0.48735
     Eigenvalues ---    0.48796   0.48805   0.48844   0.49051   0.49445
     Eigenvalues ---    0.80384
 RFO step:  Lambda= 0.00000000D+00 EMin= 1.92959794D-02
 Linear search not attempted -- first point.
 Iteration  1 RMS(Cart)=  0.00000753 RMS(Int)=  0.00000000
 Iteration  2 RMS(Cart)=  0.00000000 RMS(Int)=  0.00000000
 ITry= 1 IFail=0 DXMaxC= 1.75D-05 DCOld= 1.00D+10 DXMaxT= 3.00D-01 DXLimC= 3.00D+00 Rises=F
 Variable       Old X    -DE/DX   Delta X   Delta X   Delta X     New X
                                 (Linear)    (Quad)   (Total)
    R1        2.61164   0.00000   0.00000   0.00001   0.00001   2.61165
    R2        2.60430   0.00000   0.00000   0.00001   0.00001   2.60431
    R3        2.37709  -0.00000   0.00000  -0.00000  -0.00000   2.37709
    R4        1.87536  -0.00000   0.00000  -0.00001  -0.00001   1.87535
    R5        1.87790  -0.00000   0.00000  -0.00000  -0.00000   1.87790
    R6        1.87750  -0.00000   0.00000  -0.00000  -0.00000   1.87750
    R7        1.87800  -0.00000   0.00000  -0.00000  -0.00000   1.87800
    R8        1.88809   0.00000   0.00000   0.00000   0.00000   1.88809
    A1        1.96628   0.00000   0.00000   0.00001   0.00001   1.96629
    A2        2.21298  -0.00000   0.00000  -0.00001  -0.00001   2.21297
    A3        2.10392  -0.00000   0.00000  -0.00000  -0.00000   2.10391
    A4        2.00957   0.00000   0.00000   0.00000   0.00000   2.00957
    A5        2.01237  -0.00000   0.00000   0.00000   0.00000   2.01237
    A6        1.97278   0.00000   0.00000   0.00000   0.00000   1.97278
    A7        1.96420   0.00000   0.00000   0.00000   0.00000   1.96420
    A8        2.01389  -0.00000   0.00000  -0.00000  -0.00000   2.01389
    A9        1.97944  -0.00000   0.00000   0.00000   0.00000   1.97944
   A10        1.96247   0.00000   0.00000   0.00000   0.00000   1.96247
    D1       -2.92805  -0.00000   0.00000   0.00000   0.00000  -2.92804
    D2       -0.58204   0.00000   0.00000   0.00002   0.00002  -0.58202
    D3        0.21909  -0.00000   0.00000  -0.00002  -0.00002   0.21907
    D4        2.56511  -0.00000   0.00000  -0.00001  -0.00001   2.56509
    D5       -2.96119  -0.00000   0.00000  -0.00001  -0.00001  -2.96120
    D6       -0.65189  -0.00000   0.00000  -0.00001  -0.00001  -0.65190
    D7        0.17525   0.00000   0.00000   0.00001   0.00001   0.17526
    D8        2.48454   0.00000   0.00000   0.00001   0.00001   2.48456
    D9       -0.10138   0.00000   0.00000   0.00002   0.00002  -0.10136
   D10        3.04616  -0.00000   0.00000  -0.00001  -0.00001   3.04615
         Item               Value     Threshold  Converged?
 Maximum Force            0.000004     0.000015     YES
 RMS     Force            0.000001     0.000010     YES
 Maximum Displacement     0.000018     0.000060     YES
 RMS     Displacement     0.000008     0.000040     YES
 Predicted change in Energy=-8.950253D-11
 Optimization completed.
    -- Stationary point found.
                           ----------------------------
                           !   Optimized Parameters   !
                           ! (Angstroms and Degrees)  !
 --------------------------                            --------------------------
 ! Name  Definition              Value          Derivative Info.                !
 --------------------------------------------------------------------------------
 ! R1    R(1,2)                  1.382          -DE/DX =    0.0                 !
 ! R2    R(1,3)                  1.3781         -DE/DX =    0.0                 !
 ! R3    R(1,4)                  1.2579         -DE/DX =    0.0                 !
 ! R4    R(2,7)                  0.9924         -DE/DX =    0.0                 !
 ! R5    R(2,8)                  0.9937         -DE/DX =    0.0                 !
 ! R6    R(3,5)                  0.9935         -DE/DX =    0.0                 !
 ! R7    R(3,6)                  0.9938         -DE/DX =    0.0                 !
 ! R8    R(4,9)                  0.9991         -DE/DX =    0.0                 !
 ! A1    A(2,1,3)              112.6596         -DE/DX =    0.0                 !
 ! A2    A(2,1,4)              126.7941         -DE/DX =    0.0                 !
 ! A3    A(3,1,4)              120.5455         -DE/DX =    0.0                 !
 ! A4    A(1,2,7)              115.1398         -DE/DX =    0.0                 !
 ! A5    A(1,2,8)              115.3004         -DE/DX =    0.0                 !
 ! A6    A(7,2,8)              113.0319         -DE/DX =    0.0                 !
 ! A7    A(1,3,5)              112.5402         -DE/DX =    0.0                 !
 ! A8    A(1,3,6)              115.3873         -DE/DX =    0.0                 !
 ! A9    A(5,3,6)              113.4136         -DE/DX =    0.0                 !
 ! A10   A(1,4,9)              112.441          -DE/DX =    0.0                 !
 ! D1    D(3,1,2,7)           -167.7648         -DE/DX =    0.0                 !
 ! D2    D(3,1,2,8)            -33.3482         -DE/DX =    0.0                 !
 ! D3    D(4,1,2,7)             12.5532         -DE/DX =    0.0                 !
 ! D4    D(4,1,2,8)            146.9697         -DE/DX =    0.0                 !
 ! D5    D(2,1,3,5)           -169.6635         -DE/DX =    0.0                 !
 ! D6    D(2,1,3,6)            -37.3505         -DE/DX =    0.0                 !
 ! D7    D(4,1,3,5)             10.0409         -DE/DX =    0.0                 !
 ! D8    D(4,1,3,6)            142.3539         -DE/DX =    0.0                 !
 ! D9    D(2,1,4,9)             -5.8087         -DE/DX =    0.0                 !
 ! D10   D(3,1,4,9)            174.532          -DE/DX =    0.0                 !
 --------------------------------------------------------------------------------
 Lowest energy point so far.  Saving SCF results.
 Largest change from initial coordinates is atom    9       0.000 Angstoms.
 GradGradGradGradGradGradGradGradGradGradGradGradGradGradGradGradGradGrad

 Leave Link  103 at Tue Sep 30 16:59:24 2025, MaxMem=  4294967296 cpu:               1.8 elap:               0.1
 (Enter /software/sse/easybuild/prefix/software/Gaussian/16.C.01-avx2-nsc1/g16/l202.exe)
                          Input orientation:                          
 ---------------------------------------------------------------------
 Center     Atomic      Atomic             Coordinates (Angstroms)
 Number     Number       Type             X           Y           Z
 ---------------------------------------------------------------------
      1          6           0       -0.019060    0.122400    0.000270
      2          7           0       -0.941810   -0.903850    0.073260
      3          7           0        1.278600   -0.334970   -0.078150
      4          7           0       -0.262700    1.356470    0.005960
      5          1           0        1.946170    0.392230    0.034250
      6          1           0        1.479250   -1.142650    0.465010
      7          1           0       -1.886770   -0.631400   -0.059670
      8          1           0       -0.700780   -1.728060   -0.426850
      9          1           0       -1.242120    1.552000   -0.021850
 ---------------------------------------------------------------------
                    Distance matrix (angstroms):
                    1          2          3          4          5
     1  C    0.000000
     2  N    1.382022   0.000000
     3  N    1.378136   2.297122   0.000000
     4  N    1.257904   2.361094   2.289902   0.000000
     5  H    1.983959   3.165719   0.993531   2.410325   0.000000
     6  H    2.015259   2.464148   0.993796   3.080701   1.661152
     7  H    2.014981   0.992395   3.179273   2.567789   3.968384
     8  H    2.017765   0.993744   2.445452   3.145404   3.422658
     9  H    1.881521   2.475971   3.149263   0.999134   3.393141
                    6          7          8          9
     6  H    0.000000
     7  H    3.444816   0.000000
     8  H    2.427066   1.656519   0.000000
     9  H    3.860573   2.276893   3.349010   0.000000
 Stoichiometry    CH5N3
 Framework group  C1[X(CH5N3)]
 Deg. of freedom    21
 Full point group                 C1      NOp   1
 RotChk:  IX=0 Diff= 4.11D-15
 Largest Abelian subgroup         C1      NOp   1
 Largest concise Abelian subgroup C1      NOp   1
                         Standard orientation:                         
 ---------------------------------------------------------------------
 Center     Atomic      Atomic             Coordinates (Angstroms)
 Number     Number       Type             X           Y           Z
 ---------------------------------------------------------------------
      1          6           0       -0.019063    0.122397    0.000270
      2          7           0       -0.941790   -0.903873    0.073260
      3          7           0        1.278607   -0.334944   -0.078150
      4          7           0       -0.262731    1.356462    0.005960
      5          1           0        1.946161    0.392271    0.034250
      6          1           0        1.479275   -1.142619    0.465010
      7          1           0       -1.886757   -0.631444   -0.059670
      8          1           0       -0.700742   -1.728078   -0.426850
      9          1           0       -1.242155    1.551970   -0.021850
 ---------------------------------------------------------------------
 Rotational constants (GHZ):          10.8316089          10.3955626           5.3650780
 Leave Link  202 at Tue Sep 30 16:59:24 2025, MaxMem=  4294967296 cpu:               0.1 elap:               0.0
 (Enter /software/sse/easybuild/prefix/software/Gaussian/16.C.01-avx2-nsc1/g16/l9999.exe)

 Test job not archived.
 1\1\NSC-N1092\FOpt\RHF\Aug-CC-pVTZ\C1H5N3\X_DAVVA\30-Sep-2025\0\\#P HF
 /aug-cc-pvtz Opt=tight Pop=(MK,Hirshfeld) iop(6/33=2) iop(6/42=6) maxd
 isk=128GB\\guanidine\\0,1\C,-0.01906,0.1224,0.00027\N,-0.94181,-0.9038
 5,0.07326\N,1.2786,-0.33497,-0.07815\N,-0.2627,1.35647,0.00596\H,1.946
 17,0.39223,0.03425\H,1.47925,-1.14265,0.46501\H,-1.88677,-0.6314,-0.05
 967\H,-0.70078,-1.72806,-0.42685\H,-1.24212,1.552,-0.02185\\Version=ES
 64L-G16RevC.01\State=1-A\HF=-204.216558\RMSD=3.995e-09\RMSF=2.038e-06\
 Dipole=-0.3001548,-1.1644857,-0.0040989\Quadrupole=4.5628839,-2.057090
 4,-2.5057935,-0.7399311,2.1399553,0.3865566\PG=C01 [X(C1H5N3)]\\@


 THE POLHOLDE ROLLS WITHOUT SLIPPING ON THE HERPOLHOLDE LYING IN
 THE INVARIABLE PLANE.
 H.GOLDSTEIN, "CLASSICAL MECHANICS", PG 161
 Job cpu time:       0 days  0 hours  4 minutes 44.4 seconds.
 Elapsed time:       0 days  0 hours  0 minutes 31.6 seconds.
 File lengths (MBytes):  RWF=     37 Int=      0 D2E=      0 Chk=     12 Scr=      1
 Normal termination of Gaussian 16 at Tue Sep 30 16:59:24 2025.
