 Entering Gaussian System, Link 0=/software/sse/easybuild/prefix/software/Gaussian/16.C.01-avx2-nsc1/g16/g16.orig
 Input=guanidine.wrap
 Output=guanidine.log
 Initial command:
 /software/sse/easybuild/prefix/software/Gaussian/16.C.01-avx2-nsc1/g16/l1.exe "/scratch/local/Gau-848649.inp" -scrdir="/scratch/local/"
 Entering Link 1 = /software/sse/easybuild/prefix/software/Gaussian/16.C.01-avx2-nsc1/g16/l1.exe PID=    848657.
  
 Copyright (c) 1988-2019, Gaussian, Inc.  All Rights Reserved.
  
 This is part of the Gaussian(R) 16 program.  It is based on
 the Gaussian(R) 09 system (copyright 2009, Gaussian, Inc.),
 the Gaussian(R) 03 system (copyright 2003, Gaussian, Inc.),
 the Gaussian(R) 98 system (copyright 1998, Gaussian, Inc.),
 the Gaussian(R) 94 system (copyright 1995, Gaussian, Inc.),
 the Gaussian 92(TM) system (copyright 1992, Gaussian, Inc.),
 the Gaussian 90(TM) system (copyright 1990, Gaussian, Inc.),
 the Gaussian 88(TM) system (copyright 1988, Gaussian, Inc.),
 the Gaussian 86(TM) system (copyright 1986, Carnegie Mellon
 University), and the Gaussian 82(TM) system (copyright 1983,
 Carnegie Mellon University). Gaussian is a federally registered
 trademark of Gaussian, Inc.
  
 This software contains proprietary and confidential information,
 including trade secrets, belonging to Gaussian, Inc.
  
 This software is provided under written license and may be
 used, copied, transmitted, or stored only in accord with that
 written license.
  
 The following legend is applicable only to US Government
 contracts under FAR:
  
                    RESTRICTED RIGHTS LEGEND
  
 Use, reproduction and disclosure by the US Government is
 subject to restrictions as set forth in subparagraphs (a)
 and (c) of the Commercial Computer Software - Restricted
 Rights clause in FAR 52.227-19.
  
 Gaussian, Inc.
 340 Quinnipiac St., Bldg. 40, Wallingford CT 06492
  
  
 ---------------------------------------------------------------
 Warning -- This program may not be used in any manner that
 competes with the business of Gaussian, Inc. or will provide
 assistance to any competitor of Gaussian, Inc.  The licensee
 of this program is prohibited from giving any competitor of
 Gaussian, Inc. access to this program.  By using this program,
 the user acknowledges that Gaussian, Inc. is engaged in the
 business of creating and licensing software in the field of
 computational chemistry and represents and warrants to the
 licensee that it is not a competitor of Gaussian, Inc. and that
 it will not use this program in any manner prohibited above.
 ---------------------------------------------------------------
  

 Cite this work as:
 Gaussian 16, Revision C.01,
 M. J. Frisch, G. W. Trucks, H. B. Schlegel, G. E. Scuseria, 
 M. A. Robb, J. R. Cheeseman, G. Scalmani, V. Barone, 
 G. A. Petersson, H. Nakatsuji, X. Li, M. Caricato, A. V. Marenich, 
 J. Bloino, B. G. Janesko, R. Gomperts, B. Mennucci, H. P. Hratchian, 
 J. V. Ortiz, A. F. Izmaylov, J. L. Sonnenberg, D. Williams-Young, 
 F. Ding, F. Lipparini, F. Egidi, J. Goings, B. Peng, A. Petrone, 
 T. Henderson, D. Ranasinghe, V. G. Zakrzewski, J. Gao, N. Rega, 
 G. Zheng, W. Liang, M. Hada, M. Ehara, K. Toyota, R. Fukuda, 
 J. Hasegawa, M. Ishida, T. Nakajima, Y. Honda, O. Kitao, H. Nakai, 
 T. Vreven, K. Throssell, J. A. Montgomery, Jr., J. E. Peralta, 
 F. Ogliaro, M. J. Bearpark, J. J. Heyd, E. N. Brothers, K. N. Kudin, 
 V. N. Staroverov, T. A. Keith, R. Kobayashi, J. Normand, 
 K. Raghavachari, A. P. Rendell, J. C. Burant, S. S. Iyengar, 
 J. Tomasi, M. Cossi, J. M. Millam, M. Klene, C. Adamo, R. Cammi, 
 J. W. Ochterski, R. L. Martin, K. Morokuma, O. Farkas, 
 J. B. Foresman, and D. J. Fox, Gaussian, Inc., Wallingford CT, 2019.
 
 ******************************************
 Gaussian 16:  ES64L-G16RevC.01  3-Jul-2019
                28-Sep-2025 
 ******************************************
 %mem=12000MB
 %nprocshared=8
 Will use up to    8 processors via shared memory.
 %chk=water19.chk
 ----------------------------------------------------------------------
 #P HF/aug-cc-pvtz Opt=(Redundant, calcall, verytight) symm=(loose,foll
 ow) Pop=(MK,Hirshfeld,ReadRadii) iop(6/33=2) iop(6/42=6) Polar Freq ma
 xdisk=128GB
 ----------------------------------------------------------------------
 1/7=1,10=4,18=20,19=15,38=1/1,3;
 2/9=110,12=2,17=4,18=3,40=1/2;
 3/5=16,6=1,7=10,11=9,25=1,30=1,71=2,140=1/1,2,3;
 4//1;
 5/5=2,38=5,98=1/2;
 8/6=4,10=90,11=11/1;
 11/6=1,8=1,9=11,15=111,16=1/1,2,10;
 10/6=1/2;
 6/7=2,8=2,9=2,10=2,15=8,18=1,20=101,28=1,33=2,42=6,79=1/1,2;
 7/10=1,25=1/1,2,3,16;
 1/7=1,10=4,18=20,19=15/3(3);
 2/9=110,15=5/2;
 7/8=1,9=1,25=1,44=-1/16;
 99//99;
 2/9=110,15=5/2;
 3/5=16,6=1,7=10,11=9,25=1,30=1,71=2,140=1/1,2,3;
 4/5=5,16=3,69=1/1;
 5/5=2,38=5,98=1/2;
 8/6=4,10=90,11=11/1;
 11/6=1,8=1,9=11,15=111,16=1/1,2,10;
 10/6=1/2;
 7/10=1,25=1/1,2,3,16;
 1/7=1,10=4,18=20,19=15/3(-8);
 2/9=110,15=5/2;
 6/7=2,8=2,9=2,10=2,15=8,18=1,19=2,20=101,28=1,33=2,42=6,79=1/1,2;
 7/8=1,9=1,25=1,44=-1/16;
 99//99;
 Leave Link    1 at Sun Sep 28 20:46:06 2025, MaxMem=  1572864000 cpu:               0.7 elap:               0.1
 (Enter /software/sse/easybuild/prefix/software/Gaussian/16.C.01-avx2-nsc1/g16/l101.exe)
 ---------
 guanidine
 ---------
 Symbolic Z-matrix:
 Charge =  0 Multiplicity = 1
 C                     0.        0.1204    0. 
 N                    -1.088    -0.7279    0. 
 N                     1.2128   -0.5222    0. 
 N                    -0.0325    1.4014    0. 
 H                     2.0361    0.0488    0. 
 H                     1.3049   -1.518     0. 
 H                    -2.0124   -0.3451    0. 
 H                    -0.9937   -1.7258    0. 
 H                    -0.9809    1.7582    0. 
 
 ITRead=  0  0  0  0  0  0  0  0  0
 MicOpt= -1 -1 -1 -1 -1 -1 -1 -1 -1
 NAtoms=      9 NQM=        9 NQMF=       0 NMMI=      0 NMMIF=      0
                NMic=       0 NMicF=      0.
                    Isotopes and Nuclear Properties:
 (Nuclear quadrupole moments (NQMom) in fm**2, nuclear magnetic moments (NMagM)
  in nuclear magnetons)

  Atom         1           2           3           4           5           6           7           8           9
 IAtWgt=          12          14          14          14           1           1           1           1           1
 AtmWgt=  12.0000000  14.0030740  14.0030740  14.0030740   1.0078250   1.0078250   1.0078250   1.0078250   1.0078250
 NucSpn=           0           2           2           2           1           1           1           1           1
 AtZEff=  -0.0000000  -0.0000000  -0.0000000  -0.0000000  -0.0000000  -0.0000000  -0.0000000  -0.0000000  -0.0000000
 NQMom=    0.0000000   2.0440000   2.0440000   2.0440000   0.0000000   0.0000000   0.0000000   0.0000000   0.0000000
 NMagM=    0.0000000   0.4037610   0.4037610   0.4037610   2.7928460   2.7928460   2.7928460   2.7928460   2.7928460
 AtZNuc=   6.0000000   7.0000000   7.0000000   7.0000000   1.0000000   1.0000000   1.0000000   1.0000000   1.0000000
 Leave Link  101 at Sun Sep 28 20:46:06 2025, MaxMem=  1572864000 cpu:               1.9 elap:               0.3
 (Enter /software/sse/easybuild/prefix/software/Gaussian/16.C.01-avx2-nsc1/g16/l103.exe)

 GradGradGradGradGradGradGradGradGradGradGradGradGradGradGradGradGradGrad
 Berny optimization.
 Initialization pass.
                           ----------------------------
                           !    Initial Parameters    !
                           ! (Angstroms and Degrees)  !
 --------------------------                            --------------------------
 ! Name  Definition              Value          Derivative Info.                !
 --------------------------------------------------------------------------------
 ! R1    R(1,2)                  1.3796         calculate D2E/DX2 analytically  !
 ! R2    R(1,3)                  1.3725         calculate D2E/DX2 analytically  !
 ! R3    R(1,4)                  1.2814         calculate D2E/DX2 analytically  !
 ! R4    R(2,7)                  1.0005         calculate D2E/DX2 analytically  !
 ! R5    R(2,8)                  1.0023         calculate D2E/DX2 analytically  !
 ! R6    R(3,5)                  1.0019         calculate D2E/DX2 analytically  !
 ! R7    R(3,6)                  1.0001         calculate D2E/DX2 analytically  !
 ! R8    R(4,9)                  1.0133         calculate D2E/DX2 analytically  !
 ! A1    A(2,1,3)              114.1401         calculate D2E/DX2 analytically  !
 ! A2    A(2,1,4)              126.4898         calculate D2E/DX2 analytically  !
 ! A3    A(3,1,4)              119.3701         calculate D2E/DX2 analytically  !
 ! A4    A(1,2,7)              119.5621         calculate D2E/DX2 analytically  !
 ! A5    A(1,2,8)              122.5448         calculate D2E/DX2 analytically  !
 ! A6    A(7,2,8)              117.8931         calculate D2E/DX2 analytically  !
 ! A7    A(1,3,5)              117.3399         calculate D2E/DX2 analytically  !
 ! A8    A(1,3,6)              123.201          calculate D2E/DX2 analytically  !
 ! A9    A(5,3,6)              119.4591         calculate D2E/DX2 analytically  !
 ! A10   A(1,4,9)              112.0703         calculate D2E/DX2 analytically  !
 ! D1    D(3,1,2,7)            180.0            calculate D2E/DX2 analytically  !
 ! D2    D(3,1,2,8)              0.0            calculate D2E/DX2 analytically  !
 ! D3    D(4,1,2,7)              0.0            calculate D2E/DX2 analytically  !
 ! D4    D(4,1,2,8)            180.0            calculate D2E/DX2 analytically  !
 ! D5    D(2,1,3,5)            180.0            calculate D2E/DX2 analytically  !
 ! D6    D(2,1,3,6)              0.0            calculate D2E/DX2 analytically  !
 ! D7    D(4,1,3,5)              0.0            calculate D2E/DX2 analytically  !
 ! D8    D(4,1,3,6)            180.0            calculate D2E/DX2 analytically  !
 ! D9    D(2,1,4,9)              0.0            calculate D2E/DX2 analytically  !
 ! D10   D(3,1,4,9)            180.0            calculate D2E/DX2 analytically  !
 --------------------------------------------------------------------------------
 Trust Radius=3.00D-01 FncErr=1.00D-07 GrdErr=1.00D-07 EigMax=2.50D+02 EigMin=1.00D-04
 Number of steps in this run=     38 maximum allowed number of steps=    100.
 GradGradGradGradGradGradGradGradGradGradGradGradGradGradGradGradGradGrad

 Leave Link  103 at Sun Sep 28 20:46:06 2025, MaxMem=  1572864000 cpu:               0.1 elap:               0.0
 (Enter /software/sse/easybuild/prefix/software/Gaussian/16.C.01-avx2-nsc1/g16/l202.exe)
                          Input orientation:                          
 ---------------------------------------------------------------------
 Center     Atomic      Atomic             Coordinates (Angstroms)
 Number     Number       Type             X           Y           Z
 ---------------------------------------------------------------------
      1          6           0        0.000000    0.120400    0.000000
      2          7           0       -1.088000   -0.727900    0.000000
      3          7           0        1.212800   -0.522200    0.000000
      4          7           0       -0.032500    1.401400    0.000000
      5          1           0        2.036100    0.048800    0.000000
      6          1           0        1.304900   -1.518000    0.000000
      7          1           0       -2.012400   -0.345100    0.000000
      8          1           0       -0.993700   -1.725800    0.000000
      9          1           0       -0.980900    1.758200    0.000000
 ---------------------------------------------------------------------
                    Distance matrix (angstroms):
                    1          2          3          4          5
     1  C    0.000000
     2  N    1.379622   0.000000
     3  N    1.372523   2.309977   0.000000
     4  N    1.281412   2.376552   2.291508   0.000000
     5  H    2.037359   3.219202   1.001930   2.471565   0.000000
     6  H    2.094545   2.519966   1.000050   3.211158   1.729022
     7  H    2.065537   1.000525   3.230059   2.640126   4.067617
     8  H    2.096639   1.002346   2.513423   3.271588   3.511252
     9  H    1.909071   2.488406   3.164260   1.013296   3.467613
                    6          7          8          9
     6  H    0.000000
     7  H    3.518547   0.000000
     8  H    2.307974   1.715833   0.000000
     9  H    3.994793   2.342619   3.484024   0.000000
 Stoichiometry    CH5N3
 Framework group  CS[SG(CH5N3)]
 Deg. of freedom    15
 Full point group                 CS      NOp   2
 Largest Abelian subgroup         CS      NOp   2
 Largest concise Abelian subgroup C1      NOp   1
                         Standard orientation:                         
 ---------------------------------------------------------------------
 Center     Atomic      Atomic             Coordinates (Angstroms)
 Number     Number       Type             X           Y           Z
 ---------------------------------------------------------------------
      1          6           0        0.000000    0.120413    0.000000
      2          7           0       -1.088022   -0.727859    0.000000
      3          7           0        1.212783   -0.522219    0.000000
      4          7           0       -0.032467    1.401413    0.000000
      5          1           0        2.036098    0.048760    0.000000
      6          1           0        1.304857   -1.518021    0.000000
      7          1           0       -2.012412   -0.345035    0.000000
      8          1           0       -0.993748   -1.725762    0.000000
      9          1           0       -0.980857    1.758238    0.000000
 ---------------------------------------------------------------------
 Rotational constants (GHZ):          10.6734050          10.2732349           5.2347487
 Leave Link  202 at Sun Sep 28 20:46:06 2025, MaxMem=  1572864000 cpu:               0.0 elap:               0.0
 (Enter /software/sse/easybuild/prefix/software/Gaussian/16.C.01-avx2-nsc1/g16/l301.exe)
 Standard basis: Aug-CC-pVTZ (5D, 7F)
 Ernie: Thresh=  0.10000D-02 Tol=  0.10000D-05 Strict=F.
 Ernie:  12 primitive shells out of 175 were deleted.
 There are   238 symmetry adapted cartesian basis functions of A'  symmetry.
 There are   107 symmetry adapted cartesian basis functions of A"  symmetry.
 There are   200 symmetry adapted basis functions of A'  symmetry.
 There are    99 symmetry adapted basis functions of A"  symmetry.
   299 basis functions,   423 primitive gaussians,   345 cartesian basis functions
    16 alpha electrons       16 beta electrons
       nuclear repulsion energy       124.3681768833 Hartrees.
 IExCor=    0 DFT=F Ex=HF Corr=None ExCW=0 ScaHFX=  1.000000
 ScaDFX=  1.000000  1.000000  1.000000  1.000000 ScalE2=  1.000000  1.000000
 IRadAn=      5 IRanWt=     -1 IRanGd=            0 ICorTp=0 IEmpDi=  4
 NAtoms=    9 NActive=    9 NUniq=    9 SFac= 1.00D+00 NAtFMM=   60 NAOKFM=F Big=F
 Integral buffers will be    131072 words long.
 Raffenetti 1 integral format.
 Two-electron integral symmetry is turned on.
 Leave Link  301 at Sun Sep 28 20:46:06 2025, MaxMem=  1572864000 cpu:               0.4 elap:               0.1
 (Enter /software/sse/easybuild/prefix/software/Gaussian/16.C.01-avx2-nsc1/g16/l302.exe)
 NPDir=0 NMtPBC=     1 NCelOv=     1 NCel=       1 NClECP=     1 NCelD=      1
         NCelK=      1 NCelE2=     1 NClLst=     1 CellRange=     0.0.
 One-electron integrals computed using PRISM.
 One-electron integral symmetry used in STVInt
 NBasis=   299 RedAO= T EigKep=  3.35D-05  NBF=   200    99
 NBsUse=   299 1.00D-06 EigRej= -1.00D+00 NBFU=   200    99
 Leave Link  302 at Sun Sep 28 20:46:06 2025, MaxMem=  1572864000 cpu:               1.1 elap:               0.2
 (Enter /software/sse/easybuild/prefix/software/Gaussian/16.C.01-avx2-nsc1/g16/l303.exe)
 DipDrv:  MaxL=1.
 Leave Link  303 at Sun Sep 28 20:46:06 2025, MaxMem=  1572864000 cpu:               0.3 elap:               0.1
 (Enter /software/sse/easybuild/prefix/software/Gaussian/16.C.01-avx2-nsc1/g16/l401.exe)
 ExpMin= 2.53D-02 ExpMax= 1.14D+04 ExpMxC= 3.89D+02 IAcc=3 IRadAn=         5 AccDes= 0.00D+00
 Harris functional with IExCor=  205 and IRadAn=       5 diagonalized for initial guess.
 HarFok:  IExCor=  205 AccDes= 0.00D+00 IRadAn=         5 IDoV= 1 UseB2=F ITyADJ=14
 ICtDFT=  3500011 ScaDFX=  1.000000  1.000000  1.000000  1.000000
 FoFCou: FMM=F IPFlag=           0 FMFlag=      100000 FMFlg1=           0
         NFxFlg=           0 DoJE=T BraDBF=F KetDBF=T FulRan=T
         wScrn=  0.000000 ICntrl=       500 IOpCl=  0 I1Cent=   200000004 NGrid=           0
         NMat0=    1 NMatS0=      1 NMatT0=    0 NMatD0=    1 NMtDS0=    0 NMtDT0=    0
 Petite list used in FoFCou.
 Harris En= -204.500392752318    
 JPrj=0 DoOrth=F DoCkMO=F.
 Initial guess orbital symmetries:
       Occupied  (A') (A') (A') (A') (A') (A') (A') (A') (A') (A')
                 (A') (A') (A") (A') (A") (A")
       Virtual   (A") (A') (A') (A') (A') (A') (A") (A') (A') (A')
                 (A') (A") (A') (A") (A') (A') (A') (A') (A') (A")
                 (A') (A") (A') (A") (A') (A') (A') (A') (A') (A')
                 (A') (A") (A') (A") (A") (A') (A') (A') (A') (A")
                 (A') (A') (A") (A') (A') (A") (A') (A') (A') (A")
                 (A') (A") (A') (A") (A') (A") (A') (A') (A') (A")
                 (A') (A') (A") (A') (A') (A') (A') (A') (A') (A")
                 (A') (A") (A') (A') (A") (A') (A") (A") (A') (A')
                 (A") (A') (A") (A') (A") (A') (A') (A') (A") (A')
                 (A') (A") (A') (A") (A') (A") (A') (A") (A') (A')
                 (A') (A') (A") (A') (A") (A") (A') (A") (A') (A')
                 (A") (A') (A') (A') (A') (A") (A") (A') (A") (A')
                 (A") (A') (A') (A') (A') (A") (A') (A') (A") (A')
                 (A') (A") (A') (A") (A') (A') (A') (A") (A') (A')
                 (A") (A') (A") (A') (A') (A") (A') (A") (A') (A')
                 (A") (A') (A') (A') (A") (A') (A') (A') (A") (A')
                 (A") (A') (A") (A') (A") (A') (A") (A') (A') (A')
                 (A') (A") (A') (A') (A') (A') (A') (A") (A') (A")
                 (A") (A") (A') (A") (A') (A') (A') (A') (A") (A')
                 (A") (A') (A') (A") (A') (A') (A") (A') (A') (A")
                 (A") (A") (A') (A") (A') (A") (A') (A") (A") (A')
                 (A") (A') (A') (A") (A') (A') (A') (A') (A') (A")
                 (A') (A") (A') (A") (A') (A') (A') (A") (A') (A")
                 (A') (A') (A") (A') (A') (A") (A') (A') (A') (A')
                 (A") (A') (A") (A") (A") (A') (A') (A') (A") (A')
                 (A") (A') (A") (A') (A") (A') (A') (A") (A") (A')
                 (A") (A") (A') (A') (A") (A') (A') (A') (A') (A')
                 (A') (A') (A') (A') (A') (A') (A') (A') (A') (A')
                 (A') (A') (A')
 The electronic state of the initial guess is 1-A'.
 Leave Link  401 at Sun Sep 28 20:46:07 2025, MaxMem=  1572864000 cpu:               2.8 elap:               0.4
 (Enter /software/sse/easybuild/prefix/software/Gaussian/16.C.01-avx2-nsc1/g16/l502.exe)
 Keep R1 ints in memory in symmetry-blocked form, NReq=1515673620.
 FoFCou: FMM=F IPFlag=           0 FMFlag=           0 FMFlg1=           0
         NFxFlg=           0 DoJE=F BraDBF=F KetDBF=F FulRan=T
         wScrn=  0.000000 ICntrl=       600 IOpCl=  0 I1Cent=           0 NGrid=           0
         NMat0=    1 NMatS0=  44850 NMatT0=    0 NMatD0=    1 NMtDS0=    0 NMtDT0=    0
 Petite list used in FoFCou.
 Closed shell SCF:
 Using DIIS extrapolation, IDIIS=  1040.
 NGot=  1572864000 LenX=  1062732075 LenY=  1062612609
 Requested convergence on RMS density matrix=1.00D-08 within 128 cycles.
 Requested convergence on MAX density matrix=1.00D-06.
 Requested convergence on             energy=1.00D-06.
 No special actions if energy rises.

 Cycle   1  Pass 1  IDiag  1:
 E= -203.962367915103    
 DIIS: error= 3.78D-02 at cycle   1 NSaved=   1.
 NSaved= 1 IEnMin= 1 EnMin= -203.962367915103     IErMin= 1 ErrMin= 3.78D-02
 ErrMax= 3.78D-02  0.00D+00 EMaxC= 1.00D-01 BMatC= 5.33D-01 BMatP= 5.33D-01
 IDIUse=3 WtCom= 6.22D-01 WtEn= 3.78D-01
 Coeff-Com:  0.100D+01
 Coeff-En:   0.100D+01
 Coeff:      0.100D+01
 Gap=     0.292 Goal=   None    Shift=    0.000
 GapD=    0.292 DampG=1.000 DampE=0.500 DampFc=0.5000 IDamp=-1.
 Damping current iteration by 5.00D-01
 RMSDP=1.51D-03 MaxDP=1.04D-01              OVMax= 1.76D-01

 Cycle   2  Pass 1  IDiag  1:
 E= -204.094336606683     Delta-E=       -0.131968691580 Rises=F Damp=T
 DIIS: error= 1.26D-02 at cycle   2 NSaved=   2.
 NSaved= 2 IEnMin= 2 EnMin= -204.094336606683     IErMin= 2 ErrMin= 1.26D-02
 ErrMax= 1.26D-02  0.00D+00 EMaxC= 1.00D-01 BMatC= 1.01D-01 BMatP= 5.33D-01
 IDIUse=3 WtCom= 8.74D-01 WtEn= 1.26D-01
 Coeff-Com: -0.548D+00 0.155D+01
 Coeff-En:   0.000D+00 0.100D+01
 Coeff:     -0.479D+00 0.148D+01
 Gap=     0.386 Goal=   None    Shift=    0.000
 RMSDP=6.79D-04 MaxDP=5.14D-02 DE=-1.32D-01 OVMax= 7.29D-02

 Cycle   3  Pass 1  IDiag  1:
 E= -204.208372008355     Delta-E=       -0.114035401672 Rises=F Damp=F
 DIIS: error= 3.68D-03 at cycle   3 NSaved=   3.
 NSaved= 3 IEnMin= 3 EnMin= -204.208372008355     IErMin= 3 ErrMin= 3.68D-03
 ErrMax= 3.68D-03  0.00D+00 EMaxC= 1.00D-01 BMatC= 2.74D-03 BMatP= 1.01D-01
 IDIUse=3 WtCom= 9.63D-01 WtEn= 3.68D-02
 Coeff-Com: -0.131D+00 0.215D+00 0.916D+00
 Coeff-En:   0.000D+00 0.000D+00 0.100D+01
 Coeff:     -0.127D+00 0.207D+00 0.919D+00
 Gap=     0.364 Goal=   None    Shift=    0.000
 RMSDP=1.04D-04 MaxDP=5.82D-03 DE=-1.14D-01 OVMax= 2.08D-02

 Cycle   4  Pass 1  IDiag  1:
 E= -204.210566631743     Delta-E=       -0.002194623388 Rises=F Damp=F
 DIIS: error= 9.56D-04 at cycle   4 NSaved=   4.
 NSaved= 4 IEnMin= 4 EnMin= -204.210566631743     IErMin= 4 ErrMin= 9.56D-04
 ErrMax= 9.56D-04  0.00D+00 EMaxC= 1.00D-01 BMatC= 2.12D-04 BMatP= 2.74D-03
 IDIUse=3 WtCom= 9.90D-01 WtEn= 9.56D-03
 Coeff-Com: -0.345D-01 0.472D-01 0.295D+00 0.692D+00
 Coeff-En:   0.000D+00 0.000D+00 0.000D+00 0.100D+01
 Coeff:     -0.342D-01 0.468D-01 0.293D+00 0.695D+00
 Gap=     0.366 Goal=   None    Shift=    0.000
 RMSDP=2.78D-05 MaxDP=1.39D-03 DE=-2.19D-03 OVMax= 4.23D-03

 Cycle   5  Pass 1  IDiag  1:
 E= -204.210771516368     Delta-E=       -0.000204884626 Rises=F Damp=F
 DIIS: error= 3.76D-04 at cycle   5 NSaved=   5.
 NSaved= 5 IEnMin= 5 EnMin= -204.210771516368     IErMin= 5 ErrMin= 3.76D-04
 ErrMax= 3.76D-04  0.00D+00 EMaxC= 1.00D-01 BMatC= 1.62D-05 BMatP= 2.12D-04
 IDIUse=3 WtCom= 9.96D-01 WtEn= 3.76D-03
 Coeff-Com:  0.218D-01-0.348D-01-0.171D+00-0.839D-01 0.127D+01
 Coeff-En:   0.000D+00 0.000D+00 0.000D+00 0.000D+00 0.100D+01
 Coeff:      0.217D-01-0.346D-01-0.170D+00-0.836D-01 0.127D+01
 Gap=     0.366 Goal=   None    Shift=    0.000
 RMSDP=2.06D-05 MaxDP=1.17D-03 DE=-2.05D-04 OVMax= 3.79D-03

 Cycle   6  Pass 1  IDiag  1:
 E= -204.210815477692     Delta-E=       -0.000043961323 Rises=F Damp=F
 DIIS: error= 5.99D-05 at cycle   6 NSaved=   6.
 NSaved= 6 IEnMin= 6 EnMin= -204.210815477692     IErMin= 6 ErrMin= 5.99D-05
 ErrMax= 5.99D-05  0.00D+00 EMaxC= 1.00D-01 BMatC= 8.85D-07 BMatP= 1.62D-05
 IDIUse=1 WtCom= 1.00D+00 WtEn= 0.00D+00
 Coeff-Com: -0.286D-02 0.491D-02 0.246D-01-0.338D-01-0.236D+00 0.124D+01
 Coeff:     -0.286D-02 0.491D-02 0.246D-01-0.338D-01-0.236D+00 0.124D+01
 Gap=     0.367 Goal=   None    Shift=    0.000
 RMSDP=5.24D-06 MaxDP=2.50D-04 DE=-4.40D-05 OVMax= 9.51D-04

 Cycle   7  Pass 1  IDiag  1:
 E= -204.210818160943     Delta-E=       -0.000002683251 Rises=F Damp=F
 DIIS: error= 2.59D-05 at cycle   7 NSaved=   7.
 NSaved= 7 IEnMin= 7 EnMin= -204.210818160943     IErMin= 7 ErrMin= 2.59D-05
 ErrMax= 2.59D-05  0.00D+00 EMaxC= 1.00D-01 BMatC= 9.86D-08 BMatP= 8.85D-07
 IDIUse=1 WtCom= 1.00D+00 WtEn= 0.00D+00
 Coeff-Com: -0.183D-02 0.291D-02 0.150D-01-0.103D-04-0.955D-01-0.813D-02
 Coeff-Com:  0.109D+01
 Coeff:     -0.183D-02 0.291D-02 0.150D-01-0.103D-04-0.955D-01-0.813D-02
 Coeff:      0.109D+01
 Gap=     0.367 Goal=   None    Shift=    0.000
 RMSDP=1.63D-06 MaxDP=8.59D-05 DE=-2.68D-06 OVMax= 3.55D-04

 Cycle   8  Pass 1  IDiag  1:
 E= -204.210818431040     Delta-E=       -0.000000270097 Rises=F Damp=F
 DIIS: error= 8.67D-06 at cycle   8 NSaved=   8.
 NSaved= 8 IEnMin= 8 EnMin= -204.210818431040     IErMin= 8 ErrMin= 8.67D-06
 ErrMax= 8.67D-06  0.00D+00 EMaxC= 1.00D-01 BMatC= 1.91D-08 BMatP= 9.86D-08
 IDIUse=1 WtCom= 1.00D+00 WtEn= 0.00D+00
 Coeff-Com:  0.151D-03-0.305D-03-0.112D-02 0.259D-02 0.253D-01-0.193D+00
 Coeff-Com:  0.184D+00 0.982D+00
 Coeff:      0.151D-03-0.305D-03-0.112D-02 0.259D-02 0.253D-01-0.193D+00
 Coeff:      0.184D+00 0.982D+00
 Gap=     0.367 Goal=   None    Shift=    0.000
 RMSDP=5.96D-07 MaxDP=2.83D-05 DE=-2.70D-07 OVMax= 1.28D-04

 Cycle   9  Pass 1  IDiag  1:
 E= -204.210818472208     Delta-E=       -0.000000041169 Rises=F Damp=F
 DIIS: error= 2.86D-06 at cycle   9 NSaved=   9.
 NSaved= 9 IEnMin= 9 EnMin= -204.210818472208     IErMin= 9 ErrMin= 2.86D-06
 ErrMax= 2.86D-06  0.00D+00 EMaxC= 1.00D-01 BMatC= 1.82D-09 BMatP= 1.91D-08
 IDIUse=1 WtCom= 1.00D+00 WtEn= 0.00D+00
 Coeff-Com:  0.257D-03-0.410D-03-0.191D-02-0.128D-02 0.127D-01 0.177D-01
 Coeff-Com: -0.150D+00-0.128D+00 0.125D+01
 Coeff:      0.257D-03-0.410D-03-0.191D-02-0.128D-02 0.127D-01 0.177D-01
 Coeff:     -0.150D+00-0.128D+00 0.125D+01
 Gap=     0.367 Goal=   None    Shift=    0.000
 RMSDP=2.23D-07 MaxDP=1.22D-05 DE=-4.12D-08 OVMax= 5.24D-05

 Cycle  10  Pass 1  IDiag  1:
 E= -204.210818477820     Delta-E=       -0.000000005611 Rises=F Damp=F
 DIIS: error= 9.33D-07 at cycle  10 NSaved=  10.
 NSaved=10 IEnMin=10 EnMin= -204.210818477820     IErMin=10 ErrMin= 9.33D-07
 ErrMax= 9.33D-07  0.00D+00 EMaxC= 1.00D-01 BMatC= 1.40D-10 BMatP= 1.82D-09
 IDIUse=1 WtCom= 1.00D+00 WtEn= 0.00D+00
 Coeff-Com: -0.762D-05 0.170D-04 0.131D-03-0.373D-03-0.247D-02 0.195D-01
 Coeff-Com: -0.121D-01-0.109D+00-0.400D-01 0.114D+01
 Coeff:     -0.762D-05 0.170D-04 0.131D-03-0.373D-03-0.247D-02 0.195D-01
 Coeff:     -0.121D-01-0.109D+00-0.400D-01 0.114D+01
 Gap=     0.367 Goal=   None    Shift=    0.000
 RMSDP=6.19D-08 MaxDP=3.31D-06 DE=-5.61D-09 OVMax= 1.29D-05

 Cycle  11  Pass 1  IDiag  1:
 E= -204.210818478228     Delta-E=       -0.000000000409 Rises=F Damp=F
 DIIS: error= 2.02D-07 at cycle  11 NSaved=  11.
 NSaved=11 IEnMin=11 EnMin= -204.210818478228     IErMin=11 ErrMin= 2.02D-07
 ErrMax= 2.02D-07  0.00D+00 EMaxC= 1.00D-01 BMatC= 1.05D-11 BMatP= 1.40D-10
 IDIUse=1 WtCom= 1.00D+00 WtEn= 0.00D+00
 Coeff-Com: -0.111D-04 0.182D-04 0.102D-03 0.495D-04-0.792D-03 0.502D-03
 Coeff-Com:  0.890D-02-0.663D-02-0.878D-01 0.153D+00 0.933D+00
 Coeff:     -0.111D-04 0.182D-04 0.102D-03 0.495D-04-0.792D-03 0.502D-03
 Coeff:      0.890D-02-0.663D-02-0.878D-01 0.153D+00 0.933D+00
 Gap=     0.367 Goal=   None    Shift=    0.000
 RMSDP=1.22D-08 MaxDP=5.34D-07 DE=-4.09D-10 OVMax= 2.17D-06

 Cycle  12  Pass 1  IDiag  1:
 E= -204.210818478247     Delta-E=       -0.000000000019 Rises=F Damp=F
 DIIS: error= 6.55D-08 at cycle  12 NSaved=  12.
 NSaved=12 IEnMin=12 EnMin= -204.210818478247     IErMin=12 ErrMin= 6.55D-08
 ErrMax= 6.55D-08  0.00D+00 EMaxC= 1.00D-01 BMatC= 7.39D-13 BMatP= 1.05D-11
 IDIUse=1 WtCom= 1.00D+00 WtEn= 0.00D+00
 Coeff-Com: -0.179D-05 0.238D-05 0.102D-04 0.451D-04 0.436D-04-0.187D-02
 Coeff-Com:  0.291D-02 0.939D-02-0.842D-02-0.881D-01 0.860D-01 0.100D+01
 Coeff:     -0.179D-05 0.238D-05 0.102D-04 0.451D-04 0.436D-04-0.187D-02
 Coeff:      0.291D-02 0.939D-02-0.842D-02-0.881D-01 0.860D-01 0.100D+01
 Gap=     0.367 Goal=   None    Shift=    0.000
 RMSDP=4.25D-09 MaxDP=1.46D-07 DE=-1.92D-11 OVMax= 6.49D-07

 SCF Done:  E(RHF) =  -204.210818478     A.U. after   12 cycles
            NFock= 12  Conv=0.42D-08     -V/T= 2.0018
 KE= 2.038523867578D+02 PE=-7.273043376409D+02 EE= 1.948729555216D+02
 Leave Link  502 at Sun Sep 28 20:46:29 2025, MaxMem=  1572864000 cpu:             141.9 elap:              21.8
 (Enter /software/sse/easybuild/prefix/software/Gaussian/16.C.01-avx2-nsc1/g16/l801.exe)
 Range of M.O.s used for correlation:     1   299
 NBasis=   299 NAE=    16 NBE=    16 NFC=     0 NFV=     0
 NROrb=    299 NOA=    16 NOB=    16 NVA=   283 NVB=   283

 **** Warning!!: The largest alpha MO coefficient is  0.47446160D+02

 Leave Link  801 at Sun Sep 28 20:46:29 2025, MaxMem=  1572864000 cpu:               0.2 elap:               0.0
 (Enter /software/sse/easybuild/prefix/software/Gaussian/16.C.01-avx2-nsc1/g16/l1101.exe)
 Using compressed storage, NAtomX=     9.
 Will process     10 centers per pass.
 Leave Link 1101 at Sun Sep 28 20:46:29 2025, MaxMem=  1572864000 cpu:               1.8 elap:               0.2
 (Enter /software/sse/easybuild/prefix/software/Gaussian/16.C.01-avx2-nsc1/g16/l1102.exe)
 Symmetrizing basis deriv contribution to polar:
 IMax=3 JMax=2 DiffMx= 0.00D+00
 Leave Link 1102 at Sun Sep 28 20:46:29 2025, MaxMem=  1572864000 cpu:               0.2 elap:               0.1
 (Enter /software/sse/easybuild/prefix/software/Gaussian/16.C.01-avx2-nsc1/g16/l1110.exe)
 Forming Gx(P) for the SCF density, NAtomX=     9.
 Integral derivatives from FoFJK, PRISM(SPDF).
 Do as many integral derivatives as possible in FoFJK.
 G2DrvN: MDV=    1572862955.
 G2DrvN: will do    10 centers at a time, making    1 passes.
 Calling FoFCou, ICntrl=  3107 FMM=F I1Cent=   0 AccDes= 0.00D+00.
 FoFJK:  IHMeth= 1 ICntrl=    3107 DoSepK=F KAlg= 0 I1Cent=           0 FoldK=F
 IRaf=         0 NMat=       1 IRICut=       1 DoRegI=T DoRafI=F ISym2E= 1 IDoP0=0 IntGTp=1.
 FoFCou: FMM=F IPFlag=           0 FMFlag=      100000 FMFlg1=           0
         NFxFlg=           0 DoJE=F BraDBF=F KetDBF=F FulRan=T
         wScrn=  0.000000 ICntrl=      3107 IOpCl=  0 I1Cent=           0 NGrid=           0
         NMat0=    1 NMatS0=      1 NMatT0=    0 NMatD0=    1 NMtDS0=    0 NMtDT0=    0
 Petite list used in FoFCou.
 End of G2Drv F.D. properties file   721 does not exist.
 End of G2Drv F.D. properties file   722 does not exist.
 End of G2Drv F.D. properties file   788 does not exist.
 Leave Link 1110 at Sun Sep 28 20:47:00 2025, MaxMem=  1572864000 cpu:             247.4 elap:              31.2
 (Enter /software/sse/easybuild/prefix/software/Gaussian/16.C.01-avx2-nsc1/g16/l1002.exe)
 Minotr:  Closed shell wavefunction.
          IDoAtm=111111111
          Direct CPHF calculation.
          Differentiating once with respect to electric field.
                with respect to dipole field.
          Differentiating once with respect to nuclear coordinates.
          Using symmetry in CPHF.
          Requested convergence is 1.0D-08 RMS, and 1.0D-07 maximum.
          Secondary convergence is 1.0D-12 RMS, and 1.0D-12 maximum.
          NewPWx=T KeepS1=F KeepF1=F KeepIn=T MapXYZ=F SortEE=F KeepMc=T.
 Keep R1 ints in memory in symmetry-blocked form, NReq=1515675486.
 FoFCou: FMM=F IPFlag=           0 FMFlag=           0 FMFlg1=           0
         NFxFlg=           0 DoJE=F BraDBF=F KetDBF=F FulRan=T
         wScrn=  0.000000 ICntrl=       600 IOpCl=  0 I1Cent=           0 NGrid=           0
         NMat0=    1 NMatS0=  44850 NMatT0=    0 NMatD0=    1 NMtDS0=    0 NMtDT0=    0
 Petite list used in FoFCou.
          MDV=    1572864000 using IRadAn=       1.
          Solving linear equations simultaneously, MaxMat=       0.
          There are    30 degrees of freedom in the 1st order CPHF.  IDoFFX=6 NUNeed=     3.
     27 vectors produced by pass  0 Test12= 1.51D-14 3.33D-09 XBig12= 1.27D+01 1.71D+00.
 AX will form    27 AO Fock derivatives at one time.
     27 vectors produced by pass  1 Test12= 1.51D-14 3.33D-09 XBig12= 5.82D-01 1.38D-01.
     27 vectors produced by pass  2 Test12= 1.51D-14 3.33D-09 XBig12= 9.93D-03 1.80D-02.
     27 vectors produced by pass  3 Test12= 1.51D-14 3.33D-09 XBig12= 1.30D-04 1.86D-03.
     27 vectors produced by pass  4 Test12= 1.51D-14 3.33D-09 XBig12= 1.23D-06 2.57D-04.
     27 vectors produced by pass  5 Test12= 1.51D-14 3.33D-09 XBig12= 1.18D-08 2.08D-05.
     26 vectors produced by pass  6 Test12= 1.51D-14 3.33D-09 XBig12= 1.18D-10 1.64D-06.
     13 vectors produced by pass  7 Test12= 1.51D-14 3.33D-09 XBig12= 1.31D-12 1.69D-07.
      2 vectors produced by pass  8 Test12= 1.51D-14 3.33D-09 XBig12= 1.04D-14 1.67D-08.
 InvSVY:  IOpt=1 It=  1 EMax= 4.44D-16
 Solved reduced A of dimension   203 with    30 vectors.
 FullF1:  Do perturbations      1 to       3.
 Isotropic polarizability for W=    0.000000       38.44 Bohr**3.
 End of Minotr F.D. properties file   721 does not exist.
 End of Minotr F.D. properties file   722 does not exist.
 End of Minotr F.D. properties file   788 does not exist.
 Leave Link 1002 at Sun Sep 28 20:47:28 2025, MaxMem=  1572864000 cpu:             223.9 elap:              28.1
 (Enter /software/sse/easybuild/prefix/software/Gaussian/16.C.01-avx2-nsc1/g16/l601.exe)
 Copying SCF densities to generalized density rwf, IOpCl= 0 IROHF=0.
 SCF density gives NOpUse=  2 NOpAll=  2.

 **********************************************************************

            Population analysis using the SCF Density.

 **********************************************************************

 Orbital symmetries:
 BldTbl:  Degeneracy threshold= 1.00D-02
       Occupied  (A') (A') (A') (A') (A') (A') (A') (A') (A') (A')
                 (A') (A') (A") (A") (A') (A")
       Virtual   (A') (A') (A') (A') (A') (A") (A') (A') (A') (A")
                 (A') (A") (A') (A') (A') (A') (A") (A') (A') (A")
                 (A") (A') (A") (A') (A') (A') (A') (A') (A') (A")
                 (A') (A") (A') (A") (A') (A') (A') (A') (A') (A')
                 (A") (A') (A") (A') (A') (A") (A') (A') (A') (A")
                 (A') (A") (A') (A') (A') (A") (A') (A') (A") (A')
                 (A") (A') (A") (A') (A') (A') (A') (A") (A') (A')
                 (A') (A") (A') (A") (A') (A') (A") (A") (A') (A')
                 (A') (A") (A') (A") (A') (A") (A') (A') (A") (A')
                 (A") (A') (A') (A") (A') (A") (A') (A') (A') (A")
                 (A') (A') (A") (A') (A') (A") (A') (A") (A') (A')
                 (A") (A') (A") (A') (A') (A') (A") (A") (A') (A')
                 (A") (A') (A') (A") (A') (A') (A') (A") (A") (A')
                 (A') (A") (A') (A") (A') (A') (A') (A") (A') (A")
                 (A') (A') (A') (A") (A') (A") (A') (A") (A') (A')
                 (A') (A") (A") (A') (A') (A') (A') (A') (A") (A')
                 (A") (A') (A") (A') (A") (A') (A") (A') (A') (A')
                 (A') (A') (A") (A') (A') (A') (A') (A") (A') (A")
                 (A') (A") (A") (A') (A") (A') (A') (A') (A') (A")
                 (A') (A") (A') (A") (A') (A") (A') (A') (A") (A')
                 (A") (A") (A") (A') (A") (A') (A") (A") (A') (A")
                 (A") (A') (A') (A') (A') (A') (A') (A') (A") (A')
                 (A") (A') (A') (A") (A') (A") (A') (A") (A') (A')
                 (A') (A') (A') (A') (A") (A') (A') (A') (A") (A')
                 (A') (A') (A") (A') (A") (A') (A") (A") (A') (A")
                 (A") (A') (A") (A') (A") (A") (A") (A') (A') (A")
                 (A') (A") (A') (A') (A") (A') (A') (A') (A') (A')
                 (A') (A') (A') (A') (A') (A') (A') (A') (A') (A')
                 (A') (A') (A')
 The electronic state is 1-A'.
 Alpha  occ. eigenvalues --  -15.57858 -15.56825 -15.49472 -11.34547  -1.29302
 Alpha  occ. eigenvalues --   -1.16738  -1.12327  -0.82226  -0.73927  -0.72176
 Alpha  occ. eigenvalues --   -0.64025  -0.60991  -0.56824  -0.41908  -0.41550
 Alpha  occ. eigenvalues --   -0.34606
 Alpha virt. eigenvalues --    0.02049   0.03312   0.04332   0.06134   0.06351
 Alpha virt. eigenvalues --    0.08534   0.11069   0.12313   0.12885   0.13538
 Alpha virt. eigenvalues --    0.13547   0.14545   0.15025   0.16251   0.17307
 Alpha virt. eigenvalues --    0.18636   0.18816   0.19097   0.19501   0.24475
 Alpha virt. eigenvalues --    0.26317   0.26505   0.27346   0.28191   0.29532
 Alpha virt. eigenvalues --    0.30835   0.32167   0.33134   0.33440   0.35027
 Alpha virt. eigenvalues --    0.35439   0.36111   0.36816   0.37878   0.38552
 Alpha virt. eigenvalues --    0.39919   0.41035   0.42886   0.43093   0.45177
 Alpha virt. eigenvalues --    0.45639   0.46456   0.46488   0.47624   0.48315
 Alpha virt. eigenvalues --    0.50819   0.53589   0.55219   0.57977   0.58368
 Alpha virt. eigenvalues --    0.59668   0.61195   0.62896   0.63862   0.64753
 Alpha virt. eigenvalues --    0.65630   0.65866   0.68944   0.69232   0.71224
 Alpha virt. eigenvalues --    0.71819   0.72072   0.74088   0.74844   0.76798
 Alpha virt. eigenvalues --    0.78823   0.84840   0.86071   0.87905   0.88238
 Alpha virt. eigenvalues --    0.90018   0.90442   0.92007   0.92981   0.93927
 Alpha virt. eigenvalues --    0.98132   0.98732   1.01061   1.01265   1.02594
 Alpha virt. eigenvalues --    1.03879   1.04546   1.05184   1.05947   1.06442
 Alpha virt. eigenvalues --    1.08332   1.08427   1.09781   1.11584   1.11867
 Alpha virt. eigenvalues --    1.14410   1.14958   1.16646   1.18266   1.19695
 Alpha virt. eigenvalues --    1.20790   1.24220   1.24433   1.25767   1.27668
 Alpha virt. eigenvalues --    1.28207   1.30433   1.30461   1.32491   1.33927
 Alpha virt. eigenvalues --    1.35715   1.36477   1.38591   1.39030   1.40245
 Alpha virt. eigenvalues --    1.41893   1.43317   1.45822   1.48511   1.50246
 Alpha virt. eigenvalues --    1.52381   1.54465   1.56161   1.57432   1.58546
 Alpha virt. eigenvalues --    1.60933   1.61345   1.66064   1.66081   1.68618
 Alpha virt. eigenvalues --    1.76361   1.79160   1.80018   1.84254   1.90817
 Alpha virt. eigenvalues --    1.91828   1.92821   1.94680   2.00034   2.02340
 Alpha virt. eigenvalues --    2.03205   2.05097   2.05843   2.07690   2.09733
 Alpha virt. eigenvalues --    2.10389   2.14106   2.16417   2.16759   2.20140
 Alpha virt. eigenvalues --    2.23817   2.24576   2.29959   2.30603   2.32065
 Alpha virt. eigenvalues --    2.40357   2.40942   2.42763   2.43154   2.44944
 Alpha virt. eigenvalues --    2.49175   2.50615   2.53014   2.53396   2.55997
 Alpha virt. eigenvalues --    2.60179   2.61534   2.63812   2.65757   2.71523
 Alpha virt. eigenvalues --    2.71974   2.73009   2.81570   2.83962   2.91526
 Alpha virt. eigenvalues --    2.97686   3.04196   3.12940   3.15025   3.32558
 Alpha virt. eigenvalues --    3.46500   3.49611   3.60096   3.63643   3.68721
 Alpha virt. eigenvalues --    3.74066   3.74996   3.80293   3.81602   3.84781
 Alpha virt. eigenvalues --    3.89130   3.91336   3.99841   4.02454   4.04954
 Alpha virt. eigenvalues --    4.05308   4.08115   4.09281   4.12739   4.13393
 Alpha virt. eigenvalues --    4.16645   4.19751   4.22744   4.28195   4.31108
 Alpha virt. eigenvalues --    4.31546   4.32953   4.33368   4.34893   4.38412
 Alpha virt. eigenvalues --    4.42214   4.45489   4.46179   4.49664   4.50619
 Alpha virt. eigenvalues --    4.55425   4.56188   4.57530   4.58590   4.66127
 Alpha virt. eigenvalues --    4.70249   4.75025   4.78000   4.79764   4.83524
 Alpha virt. eigenvalues --    4.86145   4.90156   4.92800   4.94543   5.00955
 Alpha virt. eigenvalues --    5.02318   5.03390   5.08561   5.09283   5.11333
 Alpha virt. eigenvalues --    5.16587   5.19561   5.27020   5.31163   5.34353
 Alpha virt. eigenvalues --    5.34744   5.38828   5.40538   5.43486   5.43559
 Alpha virt. eigenvalues --    5.50663   5.53562   5.55737   5.58724   5.60249
 Alpha virt. eigenvalues --    5.61213   5.61807   5.66721   5.71714   5.76672
 Alpha virt. eigenvalues --    5.80993   5.84300   5.91781   5.96918   5.99813
 Alpha virt. eigenvalues --    6.07486   6.09859   6.10371   6.13566   6.14350
 Alpha virt. eigenvalues --    6.18032   6.24620   6.28236   6.32700   6.34163
 Alpha virt. eigenvalues --    6.47491   6.57077   6.57689   6.75354   6.85437
 Alpha virt. eigenvalues --    6.92238   6.99862   7.09593   7.37942   7.41743
 Alpha virt. eigenvalues --    7.60251   7.64979   7.78321   7.90419  16.52082
 Alpha virt. eigenvalues --   17.30148  17.86384  18.68884
          Condensed to atoms (all electrons):
               1          2          3          4          5          6
     1  C    4.960584   0.257239   0.296240   0.329882  -0.091548  -0.052162
     2  N    0.257239   6.404646  -0.117407  -0.098317   0.014205  -0.011796
     3  N    0.296240  -0.117407   6.356811  -0.206111   0.429354   0.444043
     4  N    0.329882  -0.098317  -0.206111   7.427503  -0.007297   0.004314
     5  H   -0.091548   0.014205   0.429354  -0.007297   0.562962  -0.079579
     6  H   -0.052162  -0.011796   0.444043   0.004314  -0.079579   0.591208
     7  H   -0.083189   0.463403   0.008396  -0.029629   0.001359  -0.000948
     8  H   -0.027928   0.407303  -0.006341   0.007565  -0.002907  -0.004212
     9  H   -0.015932  -0.050313   0.013160   0.207366  -0.002811   0.001944
               7          8          9
     1  C   -0.083189  -0.027928  -0.015932
     2  N    0.463403   0.407303  -0.050313
     3  N    0.008396  -0.006341   0.013160
     4  N   -0.029629   0.007565   0.207366
     5  H    0.001359  -0.002907  -0.002811
     6  H   -0.000948  -0.004212   0.001944
     7  H    0.594442  -0.082668  -0.008160
     8  H   -0.082668   0.563493   0.002591
     9  H   -0.008160   0.002591   0.720133
 Mulliken charges:
               1
     1  C    0.426814
     2  N   -0.268962
     3  N   -0.218145
     4  N   -0.635276
     5  H    0.176261
     6  H    0.107188
     7  H    0.136994
     8  H    0.143103
     9  H    0.132022
 Sum of Mulliken charges =  -0.00000
 Mulliken charges with hydrogens summed into heavy atoms:
               1
     1  C    0.426814
     2  N    0.011136
     3  N    0.065305
     4  N   -0.503255
 APT charges:
               1
     1  C    1.428916
     2  N   -0.761144
     3  N   -0.775768
     4  N   -0.933363
     5  H    0.232669
     6  H    0.221398
     7  H    0.214120
     8  H    0.219327
     9  H    0.153847
 Sum of APT charges =  -0.00000
 APT charges with hydrogens summed into heavy atoms:
               1
     1  C    1.428916
     2  N   -0.327698
     3  N   -0.321701
     4  N   -0.779517
 DipInt: DoE/N= T F RetVal/Mat= T F Init=T NMatP=  1 IDeriv=0 Min/MaxMlt=  0  4
 Entering OneElI...
 OneElI was handed  1572558514 working-precision words.
 Multipole integrals L=0 to 4 MinM= 0 MaxM= 0.
 Requested accuracy = 0.1000D-12
 ShPair: Thresh= 1.00D-13 NBox=     0 BxSize= 0.00D+00 RnKept= 7.69D+00
         NSMCal=                 5151 NSMKep=                5143
 PrmmSu-InSpLW:  IPartL=    0 NPrtUS=    1 NPrtUL=    1 DoSpLW=F IThBeg=    0 IThEnd=    0 NThAct=    1.
 PrSmSu:  IncTry=   512 NBBP=           5143 NTPThr=   100 NPartT=    1 Incr=          51 LDynOK=F GPUOK=F.
 PrsmSu:  NPrtUS=   1 ThrOK=F IAlg=2 LenDen=           0 ISkipM=0 DoSpLW=F IThBeg=    0 IThEnd=    0.
 Prism:   IPart=     0 DynPar=F LinDyn=F Incr=          51.
 PRISM was handed  1572199022 working-precision words and  5143 shell-pairs
 IPart=  0 NShTot=        5143 NBatch=          74 AvBLen=        69.5
 PrsmSu-ThDecC:  IPartSL=    0    0 NPrtUSL=    1    1 IThBeg=    0 IThEnd=    0 CPU=   -1 GPU=   -1 NThAct=    1.
 PrSmSu:  NxtVal=             52.
 Electronic moments (au):
        -32.00000000         -0.44624164         -1.51438653         -0.00000000
       -121.57258041       -118.14657219        -21.15233946         -0.42104401
         -0.00000000         -0.00000000        -28.88321084       -113.51777113
         -0.00000000         29.37513793        100.82965934         -0.00000000
         -0.39961138         -1.35589180         -0.00000000         -0.00000000
      -1092.78215275      -1060.85021729        -80.86491439          0.49917604
         -0.00000000         15.49574254         -0.00000000         -0.00000000
         -0.00000000       -336.67727217        -93.58656688        -93.55045214
         -0.00000000         -0.00000000         -0.85941547
 Electronic spatial extent (au):  <R**2>=            260.8715
 DipInt: DoE/N= F T RetVal/Mat= T F Init=T NMatP=  1 IDeriv=0 Min/MaxMlt=  0  4
 Nuclear    moments (au):
         32.00000000          0.00000000         -0.00000000          0.00000000
        108.69461804         99.80277269          0.00000000         -1.44683134
          0.00000000          0.00000000         27.38734045         83.25524980
          0.00000000        -36.34468515       -102.50949961          0.00000000
          0.00000000          0.00000000          0.00000000          0.00000000
        807.75326294        678.91297600          0.00000000         -0.93636137
          0.00000000        -45.94869051          0.00000000          0.00000000
          0.00000000        223.71995808          0.00000000          0.00000000
          0.00000000          0.00000000          0.00000000
 Total      moments (au):
         -0.00000000         -0.44624164         -1.51438653          0.00000000
        -12.87796237        -18.34379950        -21.15233946         -1.86787535
          0.00000000          0.00000000         -1.49587038        -30.26252133
          0.00000000         -6.96954722         -1.67984028          0.00000000
         -0.39961138         -1.35589180          0.00000000          0.00000000
       -285.02888981       -381.93724129        -80.86491439         -0.43718533
          0.00000000        -30.45294797          0.00000000          0.00000000
          0.00000000       -112.95731409        -93.58656688        -93.55045214
          0.00000000          0.00000000         -0.85941547
 Charge=             -0.0000 electrons
 Dipole moment (field-independent basis, Debye):
    X=             -1.1342    Y=             -3.8492    Z=              0.0000  Tot=              4.0128
 Quadrupole moment (field-independent basis, Debye-Ang):
   XX=            -17.3213   YY=            -24.6730   ZZ=            -28.4506
   XY=             -2.5124   XZ=              0.0000   YZ=              0.0000
 Traceless Quadrupole moment (field-independent basis, Debye-Ang):
   XX=              6.1604   YY=             -1.1914   ZZ=             -4.9690
   XY=             -2.5124   XZ=              0.0000   YZ=              0.0000
 Octapole moment (field-independent basis, Debye-Ang**2):
  XXX=             -1.0647  YYY=            -21.5397  ZZZ=              0.0000  XYY=             -4.9607
  XXY=             -1.1956  XXZ=              0.0000  XZZ=             -0.2844  YZZ=             -0.9651
  YYZ=              0.0000  XYZ=              0.0000
 Hexadecapole moment (field-independent basis, Debye-Ang**3):
 XXXX=           -107.3555 YYYY=           -143.8559 ZZZZ=            -30.4576 XXXY=             -0.1647
 XXXZ=              0.0000 YYYX=            -11.4700 YYYZ=              0.0000 ZZZX=              0.0000
 ZZZY=              0.0000 XXYY=            -42.5451 XXZZ=            -35.2492 YYZZ=            -35.2356
 XXYZ=              0.0000 YYXZ=              0.0000 ZZXY=             -0.3237
 N-N= 1.243681768833D+02 E-N=-7.273043407626D+02  KE= 2.038523867578D+02
 Symmetry A'   KE= 1.948925849163D+02
 Symmetry A"   KE= 8.959801841509D+00
 SetAtRh:  ITypeU=  23 NETotI=      -1 ICharg=  0 NETot=      32.
 StAtR1:  I=    1 I1=    1 IA=  6 C=   6.0 OKShel=TTT
                                                  SSP
                                                  222
 StAtR1:  I=    2 I1=    2 IA=  7 C=   7.0 OKShel=TTT
                                                  SSP
                                                  223
 StAtR1:  I=    3 I1=    3 IA=  7 C=   7.0 OKShel=TTT
                                                  SSP
                                                  223
 StAtR1:  I=    4 I1=    4 IA=  7 C=   7.0 OKShel=TTT
                                                  SSP
                                                  223
 StAtR1:  I=    5 I1=    5 IA=  1 C=   1.0 OKShel=T
                                                  S
                                                  1
 StAtR1:  I=    6 I1=    6 IA=  1 C=   1.0 OKShel=T
                                                  S
                                                  1
 StAtR1:  I=    7 I1=    7 IA=  1 C=   1.0 OKShel=T
                                                  S
                                                  1
 StAtR1:  I=    8 I1=    8 IA=  1 C=   1.0 OKShel=T
                                                  S
                                                  1
 StAtR1:  I=    9 I1=    9 IA=  1 C=   1.0 OKShel=T
                                                  S
                                                  1
          I=    1 IA=  6 I1=    1 NAtG=23 NE=   6.000 C=   6.000 Err= 1.75D-11
          I=    2 IA=  7 I1=    2 NAtG=22 NE=   7.000 C=   7.000 Err= 6.08D-13
          I=    3 IA=  7 I1=    3 NAtG=22 NE=   7.000 C=   7.000 Err= 6.08D-13
          I=    4 IA=  7 I1=    4 NAtG=22 NE=   7.000 C=   7.000 Err= 6.08D-13
          I=    5 IA=  1 I1=    5 NAtG=20 NE=   1.000 C=   1.000 Err= 2.80D-12
          I=    6 IA=  1 I1=    6 NAtG=20 NE=   1.000 C=   1.000 Err= 2.80D-12
          I=    7 IA=  1 I1=    7 NAtG=20 NE=   1.000 C=   1.000 Err= 2.80D-12
          I=    8 IA=  1 I1=    8 NAtG=20 NE=   1.000 C=   1.000 Err= 2.80D-12
          I=    9 IA=  1 I1=    9 NAtG=20 NE=   1.000 C=   1.000 Err= 2.80D-12
 Pruned (  99, 590) grid will be used in numerical quadrature.
 IPart=  0 IRanGd=          0 ScrnBf=T ScrnGd=T RCrit=4.00D+00 DoMicB=T.
 CutRad = 1000.00    CtRdIn =    0.00    XCrit =  15.00   ICut = 0
 Pruned (  99, 590) grid will be used in numerical quadrature.
 Pruned (  99, 590) grid will be used in numerical quadrature.
 IPart=  7 IRanGd=          0 ScrnBf=T ScrnGd=T RCrit=4.00D+00 DoMicB=T.
 CutRad = 1000.00    CtRdIn =    0.00    XCrit =  15.00   ICut = 0
 Pruned (  99, 590) grid will be used in numerical quadrature.
 Pruned (  99, 590) grid will be used in numerical quadrature.
 Pruned (  99, 590) grid will be used in numerical quadrature.
 IPart=  3 IRanGd=          0 ScrnBf=T ScrnGd=T RCrit=4.00D+00 DoMicB=T.
 CutRad = 1000.00    CtRdIn =    0.00    XCrit =  15.00   ICut = 0
 IPart=  6 IRanGd=          0 ScrnBf=T ScrnGd=T RCrit=4.00D+00 DoMicB=T.
 Pruned (  99, 590) grid will be used in numerical quadrature.
 IPart=  0 Atom number   1 atomic number  6 has       23114 grid points.
 Pruned (  99, 590) grid will be used in numerical quadrature.
 IPart=  2 IRanGd=          0 ScrnBf=T ScrnGd=T RCrit=4.00D+00 DoMicB=T.
 IPart=  4 IRanGd=          0 ScrnBf=T ScrnGd=T RCrit=4.00D+00 DoMicB=T.
 IPart=  0 Atom   1 batch    1 overlaps    9 atoms,   101 shells and     9 DB shells.   NGrid=      2408
 CutRad = 1000.00    CtRdIn =    0.00    XCrit =  15.00   ICut = 0
 CutRad = 1000.00    CtRdIn =    0.00    XCrit =  15.00   ICut = 0
 Pruned (  99, 590) grid will be used in numerical quadrature.
 CutRad = 1000.00    CtRdIn =    0.00    XCrit =  15.00   ICut = 0
 Symmetry reduced    86 angular points to    86 for atom    1.
 IPart=  1 IRanGd=          0 ScrnBf=T ScrnGd=T RCrit=4.00D+00 DoMicB=T.
 CutRad = 1000.00    CtRdIn =    0.00    XCrit =  15.00   ICut = 0
 IPart=  5 IRanGd=          0 ScrnBf=T ScrnGd=T RCrit=4.00D+00 DoMicB=T.
 CutRad = 1000.00    CtRdIn =    0.00    XCrit =  15.00   ICut = 0
 Pruned (  99, 590) grid will be used in numerical quadrature.
 IPart=  7 Atom number   1 atomic number  6 has       23114 grid points.
 IPart=  7 Atom   1 batch    2 overlaps    9 atoms,   101 shells and     9 DB shells.   NGrid=      2522
 Symmetry reduced   194 angular points to   194 for atom    1.
 Pruned (  99, 590) grid will be used in numerical quadrature.
 Pruned (  99, 590) grid will be used in numerical quadrature.
 IPart=  2 Atom number   1 atomic number  6 has       23114 grid points.
 IPart=  4 Atom number   1 atomic number  6 has       23114 grid points.
 IPart=  2 Atom   1 batch    3 overlaps    9 atoms,   101 shells and     9 DB shells.   NGrid=      2114
 IPart=  4 Atom   1 batch    4 overlaps    9 atoms,   101 shells and     9 DB shells.   NGrid=      1180
 Pruned (  99, 590) grid will be used in numerical quadrature.
 Symmetry reduced   302 angular points to   302 for atom    1.
 IPart=  6 Atom number   1 atomic number  6 has       23114 grid points.
 Pruned (  99, 590) grid will be used in numerical quadrature.
 Pruned (  99, 590) grid will be used in numerical quadrature.
 IPart=  1 Atom number   1 atomic number  6 has       23114 grid points.
 IPart=  5 Atom number   1 atomic number  6 has       23114 grid points.
 IPart=  1 Atom   1 batch    6 overlaps    9 atoms,   101 shells and     9 DB shells.   NGrid=      1180
 IPart=  5 Atom   1 batch    7 overlaps    9 atoms,   101 shells and     9 DB shells.   NGrid=      1180
 IPart=  6 Atom   1 batch    5 overlaps    9 atoms,   101 shells and     9 DB shells.   NGrid=      1180
 Symmetry reduced   590 angular points to   590 for atom    1.
 Symmetry reduced   590 angular points to   590 for atom    1.
 Symmetry reduced   590 angular points to   590 for atom    1.
 Symmetry reduced   590 angular points to   590 for atom    1.
 Pruned (  99, 590) grid will be used in numerical quadrature.
 IPart=  3 Atom number   1 atomic number  6 has       23114 grid points.
 IPart=  3 Atom   1 batch    8 overlaps    9 atoms,   101 shells and     9 DB shells.   NGrid=      1180
 Symmetry reduced   590 angular points to   590 for atom    1.
 IPart=  1 Atom   1 batch    9 overlaps    9 atoms,   101 shells and     9 DB shells.   NGrid=      1180
 IPart=  5 Atom   1 batch   10 overlaps    9 atoms,   101 shells and     9 DB shells.   NGrid=      1180
 IPart=  6 Atom   1 batch   11 overlaps    9 atoms,   100 shells and     9 DB shells.   NGrid=      1180
 IPart=  4 Atom   1 batch   12 overlaps    9 atoms,   100 shells and     9 DB shells.   NGrid=       590
 IPart=  3 Atom   1 batch   13 overlaps    9 atoms,   100 shells and     9 DB shells.   NGrid=       604
 Symmetry reduced   302 angular points to   302 for atom    1.
 IPart=  4 Atom   1 batch   14 overlaps    9 atoms,    99 shells and     9 DB shells.   NGrid=       604
 Symmetry reduced   302 angular points to   302 for atom    1.
 IPart=  3 Atom   1 batch   15 overlaps    9 atoms,    94 shells and     9 DB shells.   NGrid=       604
 IPart=  2 Atom   1 batch   16 overlaps    9 atoms,    86 shells and     9 DB shells.   NGrid=       604
 IPart=  3 Atom   1 batch   17 overlaps    9 atoms,    71 shells and     9 DB shells.   NGrid=       604
 IPart=  6 Atom   1 batch   18 overlaps    9 atoms,    54 shells and     9 DB shells.   NGrid=       604
 IPart=  0 Atom   1 batch   19 overlaps    9 atoms,    40 shells and     9 DB shells.   NGrid=       604
 Symmetry reduced   302 angular points to   302 for atom    1.
 Symmetry reduced   302 angular points to   302 for atom    1.
 IPart=  4 Atom   1 batch   20 overlaps    9 atoms,    24 shells and     5 DB shells.   NGrid=       604
 IPart=  4 Atom   1 batch   21 overlaps    9 atoms,    13 shells and     0 DB shells.   NGrid=       604
 IPart=  0 Atom   1 batch   22 overlaps    9 atoms,     5 shells and     0 DB shells.   NGrid=       604
 Pruned (  99, 590) grid will be used in numerical quadrature.
 IPart=  0 Atom number   2 atomic number  7 has       23416 grid points.
 IPart=  0 Atom   2 batch    1 overlaps    9 atoms,    97 shells and     9 DB shells.   NGrid=      2408
 Pruned (  99, 590) grid will be used in numerical quadrature.
 Symmetry reduced    86 angular points to    86 for atom    2.
 IPart=  4 Atom number   2 atomic number  7 has       23416 grid points.
 IPart=  4 Atom   2 batch    2 overlaps    9 atoms,    98 shells and     9 DB shells.   NGrid=      2522
 Symmetry reduced   194 angular points to   194 for atom    2.
 Pruned (  99, 590) grid will be used in numerical quadrature.
 IPart=  1 Atom number   2 atomic number  7 has       23416 grid points.
 IPart=  1 Atom   2 batch    3 overlaps    9 atoms,    99 shells and     9 DB shells.   NGrid=      2114
 Pruned (  99, 590) grid will be used in numerical quadrature.
 Symmetry reduced   302 angular points to   302 for atom    2.
 IPart=  5 Atom number   2 atomic number  7 has       23416 grid points.
 IPart=  5 Atom   2 batch    4 overlaps    9 atoms,    99 shells and     9 DB shells.   NGrid=      1180
 Symmetry reduced   590 angular points to   590 for atom    2.
 Pruned (  99, 590) grid will be used in numerical quadrature.
 IPart=  6 Atom number   2 atomic number  7 has       23416 grid points.
 IPart=  6 Atom   2 batch    5 overlaps    9 atoms,    99 shells and     9 DB shells.   NGrid=      1180
 Symmetry reduced   590 angular points to   590 for atom    2.
 Pruned (  99, 590) grid will be used in numerical quadrature.
 IPart=  2 Atom number   2 atomic number  7 has       23416 grid points.
 IPart=  2 Atom   2 batch    6 overlaps    9 atoms,   100 shells and     9 DB shells.   NGrid=      1180
 Symmetry reduced   590 angular points to   590 for atom    2.
 Pruned (  99, 590) grid will be used in numerical quadrature.
 IPart=  3 Atom number   2 atomic number  7 has       23416 grid points.
 IPart=  3 Atom   2 batch    7 overlaps    9 atoms,   101 shells and     9 DB shells.   NGrid=      1180
 Symmetry reduced   590 angular points to   590 for atom    2.
 Pruned (  99, 590) grid will be used in numerical quadrature.
 IPart=  7 Atom number   2 atomic number  7 has       23416 grid points.
 IPart=  7 Atom   2 batch    8 overlaps    9 atoms,   101 shells and     9 DB shells.   NGrid=      1180
 Symmetry reduced   590 angular points to   590 for atom    2.
 IPart=  5 Atom   2 batch    9 overlaps    9 atoms,   101 shells and     9 DB shells.   NGrid=      1180
 IPart=  6 Atom   2 batch   10 overlaps    9 atoms,   101 shells and     9 DB shells.   NGrid=      1180
 IPart=  2 Atom   2 batch   11 overlaps    9 atoms,   101 shells and     9 DB shells.   NGrid=      1180
 IPart=  3 Atom   2 batch   12 overlaps    9 atoms,   100 shells and     9 DB shells.   NGrid=       590
 IPart=  7 Atom   2 batch   13 overlaps    9 atoms,   100 shells and     9 DB shells.   NGrid=       604
 Symmetry reduced   302 angular points to   302 for atom    2.
 IPart=  3 Atom   2 batch   14 overlaps    9 atoms,   100 shells and     9 DB shells.   NGrid=       604
 Symmetry reduced   302 angular points to   302 for atom    2.
 IPart=  0 Atom   2 batch   15 overlaps    9 atoms,    98 shells and     9 DB shells.   NGrid=       604
 Symmetry reduced   302 angular points to   302 for atom    2.
 IPart=  7 Atom   2 batch   16 overlaps    9 atoms,    95 shells and     9 DB shells.   NGrid=       604
 IPart=  1 Atom   2 batch   17 overlaps    9 atoms,    89 shells and     9 DB shells.   NGrid=       604
 IPart=  4 Atom   2 batch   18 overlaps    9 atoms,    74 shells and     9 DB shells.   NGrid=       604
 Symmetry reduced   302 angular points to   302 for atom    2.
 IPart=  6 Atom   2 batch   19 overlaps    9 atoms,    56 shells and     9 DB shells.   NGrid=       604
 Symmetry reduced   302 angular points to   302 for atom    2.
 IPart=  5 Atom   2 batch   20 overlaps    9 atoms,    36 shells and     8 DB shells.   NGrid=       604
 Symmetry reduced   302 angular points to   302 for atom    2.
 IPart=  2 Atom   2 batch   21 overlaps    9 atoms,    20 shells and     3 DB shells.   NGrid=       604
 Symmetry reduced   302 angular points to   302 for atom    2.
 IPart=  1 Atom   2 batch   22 overlaps    9 atoms,    11 shells and     0 DB shells.   NGrid=       604
 IPart=  7 Atom   2 batch   23 overlaps    9 atoms,     3 shells and     0 DB shells.   NGrid=       302
 Pruned (  99, 590) grid will be used in numerical quadrature.
 IPart=  7 Atom number   3 atomic number  7 has       23416 grid points.
 IPart=  7 Atom   3 batch    1 overlaps    9 atoms,    96 shells and     9 DB shells.   NGrid=      2408
 Symmetry reduced    86 angular points to    86 for atom    3.
 Pruned (  99, 590) grid will be used in numerical quadrature.
 IPart=  2 Atom number   3 atomic number  7 has       23416 grid points.
 Pruned (  99, 590) grid will be used in numerical quadrature.
 IPart=  2 Atom   3 batch    2 overlaps    9 atoms,    98 shells and     9 DB shells.   NGrid=      2522
 IPart=  5 Atom number   3 atomic number  7 has       23416 grid points.
 Symmetry reduced   194 angular points to   194 for atom    3.
 IPart=  5 Atom   3 batch    3 overlaps    9 atoms,    99 shells and     9 DB shells.   NGrid=      2114
 Symmetry reduced   302 angular points to   302 for atom    3.
 Pruned (  99, 590) grid will be used in numerical quadrature.
 IPart=  1 Atom number   3 atomic number  7 has       23416 grid points.
 IPart=  1 Atom   3 batch    4 overlaps    9 atoms,    99 shells and     9 DB shells.   NGrid=      1180
 Symmetry reduced   590 angular points to   590 for atom    3.
 Pruned (  99, 590) grid will be used in numerical quadrature.
 IPart=  6 Atom number   3 atomic number  7 has       23416 grid points.
 Pruned (  99, 590) grid will be used in numerical quadrature.
 IPart=  6 Atom   3 batch    5 overlaps    9 atoms,    99 shells and     9 DB shells.   NGrid=      1180
 IPart=  4 Atom number   3 atomic number  7 has       23416 grid points.
 Symmetry reduced   590 angular points to   590 for atom    3.
 IPart=  4 Atom   3 batch    6 overlaps    9 atoms,   101 shells and     9 DB shells.   NGrid=      1180
 Symmetry reduced   590 angular points to   590 for atom    3.
 Pruned (  99, 590) grid will be used in numerical quadrature.
 IPart=  0 Atom number   3 atomic number  7 has       23416 grid points.
 IPart=  0 Atom   3 batch    7 overlaps    9 atoms,   101 shells and     9 DB shells.   NGrid=      1180
 Symmetry reduced   590 angular points to   590 for atom    3.
 Pruned (  99, 590) grid will be used in numerical quadrature.
 IPart=  3 Atom number   3 atomic number  7 has       23416 grid points.
 IPart=  3 Atom   3 batch    8 overlaps    9 atoms,   101 shells and     9 DB shells.   NGrid=      1180
 Symmetry reduced   590 angular points to   590 for atom    3.
 IPart=  1 Atom   3 batch    9 overlaps    9 atoms,   101 shells and     9 DB shells.   NGrid=      1180
 IPart=  6 Atom   3 batch   10 overlaps    9 atoms,   101 shells and     9 DB shells.   NGrid=      1180
 IPart=  4 Atom   3 batch   11 overlaps    9 atoms,   101 shells and     9 DB shells.   NGrid=      1180
 IPart=  0 Atom   3 batch   12 overlaps    9 atoms,   100 shells and     9 DB shells.   NGrid=       590
 IPart=  3 Atom   3 batch   13 overlaps    9 atoms,   100 shells and     9 DB shells.   NGrid=       604
 Symmetry reduced   302 angular points to   302 for atom    3.
 IPart=  0 Atom   3 batch   14 overlaps    9 atoms,   100 shells and     9 DB shells.   NGrid=       604
 Symmetry reduced   302 angular points to   302 for atom    3.
 IPart=  7 Atom   3 batch   15 overlaps    9 atoms,    98 shells and     9 DB shells.   NGrid=       604
 Symmetry reduced   302 angular points to   302 for atom    3.
 IPart=  3 Atom   3 batch   16 overlaps    9 atoms,    95 shells and     9 DB shells.   NGrid=       604
 IPart=  5 Atom   3 batch   17 overlaps    9 atoms,    89 shells and     9 DB shells.   NGrid=       604
 IPart=  2 Atom   3 batch   18 overlaps    9 atoms,    75 shells and     9 DB shells.   NGrid=       604
 Symmetry reduced   302 angular points to   302 for atom    3.
 IPart=  5 Atom   3 batch   19 overlaps    9 atoms,    56 shells and     9 DB shells.   NGrid=       604
 IPart=  1 Atom   3 batch   20 overlaps    9 atoms,    37 shells and     8 DB shells.   NGrid=       604
 Symmetry reduced   302 angular points to   302 for atom    3.
 IPart=  4 Atom   3 batch   21 overlaps    9 atoms,    20 shells and     3 DB shells.   NGrid=       604
 Symmetry reduced   302 angular points to   302 for atom    3.
 IPart=  3 Atom   3 batch   22 overlaps    9 atoms,    11 shells and     0 DB shells.   NGrid=       604
 IPart=  6 Atom   3 batch   23 overlaps    9 atoms,     3 shells and     0 DB shells.   NGrid=       302
 Symmetry reduced   302 angular points to   302 for atom    3.
 Pruned (  99, 590) grid will be used in numerical quadrature.
 IPart=  1 Atom number   4 atomic number  7 has       23416 grid points.
 IPart=  1 Atom   4 batch    1 overlaps    9 atoms,    95 shells and     9 DB shells.   NGrid=      2408
 Symmetry reduced    86 angular points to    86 for atom    4.
 Pruned (  99, 590) grid will be used in numerical quadrature.
 IPart=  4 Atom number   4 atomic number  7 has       23416 grid points.
 Pruned (  99, 590) grid will be used in numerical quadrature.
 IPart=  4 Atom   4 batch    2 overlaps    9 atoms,    97 shells and     9 DB shells.   NGrid=      2522
 IPart=  6 Atom number   4 atomic number  7 has       23416 grid points.
 Symmetry reduced   194 angular points to   194 for atom    4.
 IPart=  6 Atom   4 batch    3 overlaps    9 atoms,    99 shells and     9 DB shells.   NGrid=      2114
 Symmetry reduced   302 angular points to   302 for atom    4.
 Pruned (  99, 590) grid will be used in numerical quadrature.
 IPart=  3 Atom number   4 atomic number  7 has       23416 grid points.
 IPart=  3 Atom   4 batch    4 overlaps    9 atoms,    99 shells and     9 DB shells.   NGrid=      1180
 Symmetry reduced   590 angular points to   590 for atom    4.
 Pruned (  99, 590) grid will be used in numerical quadrature.
 IPart=  0 Atom number   4 atomic number  7 has       23416 grid points.
 IPart=  0 Atom   4 batch    5 overlaps    9 atoms,    99 shells and     9 DB shells.   NGrid=      1180
 Symmetry reduced   590 angular points to   590 for atom    4.
 Pruned (  99, 590) grid will be used in numerical quadrature.
 IPart=  5 Atom number   4 atomic number  7 has       23416 grid points.
 IPart=  5 Atom   4 batch    6 overlaps    9 atoms,   100 shells and     9 DB shells.   NGrid=      1180
 Symmetry reduced   590 angular points to   590 for atom    4.
 Pruned (  99, 590) grid will be used in numerical quadrature.
 IPart=  7 Atom number   4 atomic number  7 has       23416 grid points.
 IPart=  7 Atom   4 batch    7 overlaps    9 atoms,   101 shells and     9 DB shells.   NGrid=      1180
 Pruned (  99, 590) grid will be used in numerical quadrature.
 Symmetry reduced   590 angular points to   590 for atom    4.
 IPart=  2 Atom number   4 atomic number  7 has       23416 grid points.
 IPart=  2 Atom   4 batch    8 overlaps    9 atoms,   101 shells and     9 DB shells.   NGrid=      1180
 Symmetry reduced   590 angular points to   590 for atom    4.
 IPart=  3 Atom   4 batch    9 overlaps    9 atoms,   101 shells and     9 DB shells.   NGrid=      1180
 IPart=  0 Atom   4 batch   10 overlaps    9 atoms,   101 shells and     9 DB shells.   NGrid=      1180
 IPart=  5 Atom   4 batch   11 overlaps    9 atoms,   101 shells and     9 DB shells.   NGrid=      1180
 IPart=  2 Atom   4 batch   12 overlaps    9 atoms,   100 shells and     9 DB shells.   NGrid=       590
 IPart=  7 Atom   4 batch   13 overlaps    9 atoms,   100 shells and     9 DB shells.   NGrid=       604
 Symmetry reduced   302 angular points to   302 for atom    4.
 IPart=  1 Atom   4 batch   14 overlaps    9 atoms,   100 shells and     9 DB shells.   NGrid=       604
 Symmetry reduced   302 angular points to   302 for atom    4.
 IPart=  2 Atom   4 batch   15 overlaps    9 atoms,    98 shells and     9 DB shells.   NGrid=       604
 Symmetry reduced   302 angular points to   302 for atom    4.
 IPart=  7 Atom   4 batch   16 overlaps    9 atoms,    95 shells and     9 DB shells.   NGrid=       604
 IPart=  6 Atom   4 batch   17 overlaps    9 atoms,    91 shells and     9 DB shells.   NGrid=       604
 IPart=  4 Atom   4 batch   18 overlaps    9 atoms,    76 shells and     9 DB shells.   NGrid=       604
 Symmetry reduced   302 angular points to   302 for atom    4.
 IPart=  6 Atom   4 batch   19 overlaps    9 atoms,    58 shells and     9 DB shells.   NGrid=       604
 IPart=  7 Atom   4 batch   20 overlaps    9 atoms,    38 shells and     8 DB shells.   NGrid=       604
 IPart=  0 Atom   4 batch   21 overlaps    9 atoms,    22 shells and     4 DB shells.   NGrid=       604
 Symmetry reduced   302 angular points to   302 for atom    4.
 IPart=  3 Atom   4 batch   22 overlaps    9 atoms,    11 shells and     0 DB shells.   NGrid=       604
 IPart=  4 Atom   4 batch   23 overlaps    9 atoms,     4 shells and     0 DB shells.   NGrid=       302
 Symmetry reduced   302 angular points to   302 for atom    4.
 Pruned (  99, 590) grid will be used in numerical quadrature.
 Pruned (  99, 590) grid will be used in numerical quadrature.
 IPart=  4 Atom number   5 atomic number  1 has       23466 grid points.
 IPart=  7 Atom number   5 atomic number  1 has       23466 grid points.
 IPart=  4 Atom   5 batch    1 overlaps    9 atoms,    88 shells and     9 DB shells.   NGrid=      2838
 IPart=  7 Atom   5 batch    2 overlaps    9 atoms,    89 shells and     9 DB shells.   NGrid=      1552
 Symmetry reduced    86 angular points to    86 for atom    5.
 Symmetry reduced   194 angular points to   194 for atom    5.
 Pruned (  99, 590) grid will be used in numerical quadrature.
 IPart=  2 Atom number   5 atomic number  1 has       23466 grid points.
 IPart=  2 Atom   5 batch    3 overlaps    9 atoms,    93 shells and     9 DB shells.   NGrid=      2416
 Symmetry reduced   302 angular points to   302 for atom    5.
 Pruned (  99, 590) grid will be used in numerical quadrature.
 IPart=  0 Atom number   5 atomic number  1 has       23466 grid points.
 IPart=  0 Atom   5 batch    4 overlaps    9 atoms,    94 shells and     9 DB shells.   NGrid=      1180
 Symmetry reduced   590 angular points to   590 for atom    5.
 Pruned (  99, 590) grid will be used in numerical quadrature.
 IPart=  5 Atom number   5 atomic number  1 has       23466 grid points.
 IPart=  5 Atom   5 batch    5 overlaps    9 atoms,    97 shells and     9 DB shells.   NGrid=      1180
 Symmetry reduced   590 angular points to   590 for atom    5.
 Pruned (  99, 590) grid will be used in numerical quadrature.
 IPart=  3 Atom number   5 atomic number  1 has       23466 grid points.
 IPart=  3 Atom   5 batch    6 overlaps    9 atoms,    97 shells and     9 DB shells.   NGrid=      1180
 Symmetry reduced   590 angular points to   590 for atom    5.
 Pruned (  99, 590) grid will be used in numerical quadrature.
 IPart=  6 Atom number   5 atomic number  1 has       23466 grid points.
 IPart=  6 Atom   5 batch    7 overlaps    9 atoms,    98 shells and     9 DB shells.   NGrid=      1180
 Symmetry reduced   590 angular points to   590 for atom    5.
 Pruned (  99, 590) grid will be used in numerical quadrature.
 IPart=  1 Atom number   5 atomic number  1 has       23466 grid points.
 IPart=  1 Atom   5 batch    8 overlaps    9 atoms,    99 shells and     9 DB shells.   NGrid=      1180
 Symmetry reduced   590 angular points to   590 for atom    5.
 IPart=  0 Atom   5 batch    9 overlaps    9 atoms,   100 shells and     9 DB shells.   NGrid=      1180
 IPart=  5 Atom   5 batch   10 overlaps    9 atoms,   100 shells and     9 DB shells.   NGrid=      1180
 IPart=  3 Atom   5 batch   11 overlaps    9 atoms,   101 shells and     9 DB shells.   NGrid=      1180
 IPart=  6 Atom   5 batch   12 overlaps    9 atoms,   101 shells and     9 DB shells.   NGrid=      1180
 IPart=  1 Atom   5 batch   13 overlaps    9 atoms,   101 shells and     9 DB shells.   NGrid=       604
 Symmetry reduced   302 angular points to   302 for atom    5.
 IPart=  7 Atom   5 batch   14 overlaps    9 atoms,   100 shells and     9 DB shells.   NGrid=       604
 Symmetry reduced   302 angular points to   302 for atom    5.
 IPart=  7 Atom   5 batch   15 overlaps    9 atoms,    97 shells and     9 DB shells.   NGrid=       604
 IPart=  1 Atom   5 batch   16 overlaps    9 atoms,    92 shells and     9 DB shells.   NGrid=       604
 IPart=  2 Atom   5 batch   17 overlaps    9 atoms,    84 shells and     9 DB shells.   NGrid=       604
 IPart=  4 Atom   5 batch   18 overlaps    9 atoms,    67 shells and     9 DB shells.   NGrid=       604
 Symmetry reduced   302 angular points to   302 for atom    5.
 IPart=  0 Atom   5 batch   19 overlaps    9 atoms,    46 shells and     8 DB shells.   NGrid=       604
 Symmetry reduced   302 angular points to   302 for atom    5.
 IPart=  5 Atom   5 batch   20 overlaps    9 atoms,    26 shells and     4 DB shells.   NGrid=       604
 Symmetry reduced   302 angular points to   302 for atom    5.
 IPart=  0 Atom   5 batch   21 overlaps    9 atoms,    12 shells and     0 DB shells.   NGrid=       604
 IPart=  5 Atom   5 batch   22 overlaps    9 atoms,     4 shells and     0 DB shells.   NGrid=       604
 Pruned (  99, 590) grid will be used in numerical quadrature.
 IPart=  3 Atom number   6 atomic number  1 has       23466 grid points.
 IPart=  3 Atom   6 batch    1 overlaps    9 atoms,    90 shells and     9 DB shells.   NGrid=      2838
 Pruned (  99, 590) grid will be used in numerical quadrature.
 Symmetry reduced    86 angular points to    86 for atom    6.
 IPart=  1 Atom number   6 atomic number  1 has       23466 grid points.
 IPart=  1 Atom   6 batch    2 overlaps    9 atoms,    91 shells and     9 DB shells.   NGrid=      1552
 Symmetry reduced   194 angular points to   194 for atom    6.
 Pruned (  99, 590) grid will be used in numerical quadrature.
 IPart=  4 Atom number   6 atomic number  1 has       23466 grid points.
 Pruned (  99, 590) grid will be used in numerical quadrature.
 IPart=  4 Atom   6 batch    3 overlaps    9 atoms,    94 shells and     9 DB shells.   NGrid=      2416
 IPart=  2 Atom number   6 atomic number  1 has       23466 grid points.
 Symmetry reduced   302 angular points to   302 for atom    6.
 IPart=  2 Atom   6 batch    4 overlaps    9 atoms,    95 shells and     9 DB shells.   NGrid=      1180
 Symmetry reduced   590 angular points to   590 for atom    6.
 Pruned (  99, 590) grid will be used in numerical quadrature.
 IPart=  0 Atom number   6 atomic number  1 has       23466 grid points.
 IPart=  0 Atom   6 batch    5 overlaps    9 atoms,    97 shells and     9 DB shells.   NGrid=      1180
 Symmetry reduced   590 angular points to   590 for atom    6.
 Pruned (  99, 590) grid will be used in numerical quadrature.
 IPart=  7 Atom number   6 atomic number  1 has       23466 grid points.
 IPart=  7 Atom   6 batch    6 overlaps    9 atoms,    97 shells and     9 DB shells.   NGrid=      1180
 Symmetry reduced   590 angular points to   590 for atom    6.
 Pruned (  99, 590) grid will be used in numerical quadrature.
 IPart=  6 Atom number   6 atomic number  1 has       23466 grid points.
 IPart=  6 Atom   6 batch    7 overlaps    9 atoms,    99 shells and     9 DB shells.   NGrid=      1180
 Symmetry reduced   590 angular points to   590 for atom    6.
 Pruned (  99, 590) grid will be used in numerical quadrature.
 IPart=  5 Atom number   6 atomic number  1 has       23466 grid points.
 IPart=  5 Atom   6 batch    8 overlaps    9 atoms,   100 shells and     9 DB shells.   NGrid=      1180
 Symmetry reduced   590 angular points to   590 for atom    6.
 IPart=  2 Atom   6 batch    9 overlaps    9 atoms,   100 shells and     9 DB shells.   NGrid=      1180
 IPart=  0 Atom   6 batch   10 overlaps    9 atoms,   100 shells and     9 DB shells.   NGrid=      1180
 IPart=  7 Atom   6 batch   11 overlaps    9 atoms,   101 shells and     9 DB shells.   NGrid=      1180
 IPart=  6 Atom   6 batch   12 overlaps    9 atoms,   101 shells and     9 DB shells.   NGrid=      1180
 IPart=  5 Atom   6 batch   13 overlaps    9 atoms,   101 shells and     9 DB shells.   NGrid=       604
 Symmetry reduced   302 angular points to   302 for atom    6.
 IPart=  1 Atom   6 batch   14 overlaps    9 atoms,   100 shells and     9 DB shells.   NGrid=       604
 Symmetry reduced   302 angular points to   302 for atom    6.
 IPart=  1 Atom   6 batch   15 overlaps    9 atoms,    97 shells and     9 DB shells.   NGrid=       604
 IPart=  5 Atom   6 batch   16 overlaps    9 atoms,    92 shells and     9 DB shells.   NGrid=       604
 IPart=  4 Atom   6 batch   17 overlaps    9 atoms,    83 shells and     9 DB shells.   NGrid=       604
 IPart=  3 Atom   6 batch   18 overlaps    9 atoms,    66 shells and     9 DB shells.   NGrid=       604
 Symmetry reduced   302 angular points to   302 for atom    6.
 IPart=  2 Atom   6 batch   19 overlaps    9 atoms,    44 shells and     8 DB shells.   NGrid=       604
 Symmetry reduced   302 angular points to   302 for atom    6.
 IPart=  7 Atom   6 batch   20 overlaps    9 atoms,    26 shells and     4 DB shells.   NGrid=       604
 Symmetry reduced   302 angular points to   302 for atom    6.
 IPart=  0 Atom   6 batch   21 overlaps    9 atoms,    12 shells and     0 DB shells.   NGrid=       604
 Symmetry reduced   302 angular points to   302 for atom    6.
 IPart=  5 Atom   6 batch   22 overlaps    9 atoms,     4 shells and     0 DB shells.   NGrid=       604
 Pruned (  99, 590) grid will be used in numerical quadrature.
 IPart=  1 Atom number   7 atomic number  1 has       23466 grid points.
 IPart=  1 Atom   7 batch    1 overlaps    9 atoms,    90 shells and     9 DB shells.   NGrid=      2838
 Symmetry reduced    86 angular points to    86 for atom    7.
 Pruned (  99, 590) grid will be used in numerical quadrature.
 IPart=  6 Atom number   7 atomic number  1 has       23466 grid points.
 IPart=  6 Atom   7 batch    2 overlaps    9 atoms,    91 shells and     9 DB shells.   NGrid=      1552
 Pruned (  99, 590) grid will be used in numerical quadrature.
 Symmetry reduced   194 angular points to   194 for atom    7.
 IPart=  3 Atom number   7 atomic number  1 has       23466 grid points.
 IPart=  3 Atom   7 batch    3 overlaps    9 atoms,    94 shells and     9 DB shells.   NGrid=      2416
 Symmetry reduced   302 angular points to   302 for atom    7.
 Pruned (  99, 590) grid will be used in numerical quadrature.
 Pruned (  99, 590) grid will be used in numerical quadrature.
 IPart=  4 Atom number   7 atomic number  1 has       23466 grid points.
 IPart=  2 Atom number   7 atomic number  1 has       23466 grid points.
 Pruned (  99, 590) grid will be used in numerical quadrature.
 IPart=  2 Atom   7 batch    5 overlaps    9 atoms,    97 shells and     9 DB shells.   NGrid=      1180
 IPart=  7 Atom number   7 atomic number  1 has       23466 grid points.
 Symmetry reduced   590 angular points to   590 for atom    7.
 IPart=  7 Atom   7 batch    6 overlaps    9 atoms,    97 shells and     9 DB shells.   NGrid=      1180
 IPart=  4 Atom   7 batch    4 overlaps    9 atoms,    94 shells and     9 DB shells.   NGrid=      1180
 Symmetry reduced   590 angular points to   590 for atom    7.
 Symmetry reduced   590 angular points to   590 for atom    7.
 Pruned (  99, 590) grid will be used in numerical quadrature.
 IPart=  0 Atom number   7 atomic number  1 has       23466 grid points.
 IPart=  0 Atom   7 batch    7 overlaps    9 atoms,    97 shells and     9 DB shells.   NGrid=      1180
 Symmetry reduced   590 angular points to   590 for atom    7.
 Pruned (  99, 590) grid will be used in numerical quadrature.
 IPart=  5 Atom number   7 atomic number  1 has       23466 grid points.
 IPart=  5 Atom   7 batch    8 overlaps    9 atoms,    99 shells and     9 DB shells.   NGrid=      1180
 Symmetry reduced   590 angular points to   590 for atom    7.
 IPart=  4 Atom   7 batch    9 overlaps    9 atoms,   100 shells and     9 DB shells.   NGrid=      1180
 IPart=  2 Atom   7 batch   10 overlaps    9 atoms,   100 shells and     9 DB shells.   NGrid=      1180
 IPart=  7 Atom   7 batch   11 overlaps    9 atoms,   101 shells and     9 DB shells.   NGrid=      1180
 IPart=  0 Atom   7 batch   12 overlaps    9 atoms,   101 shells and     9 DB shells.   NGrid=      1180
 IPart=  5 Atom   7 batch   13 overlaps    9 atoms,   101 shells and     9 DB shells.   NGrid=       604
 Symmetry reduced   302 angular points to   302 for atom    7.
 IPart=  6 Atom   7 batch   14 overlaps    9 atoms,   100 shells and     9 DB shells.   NGrid=       604
 Symmetry reduced   302 angular points to   302 for atom    7.
[...]
    R5        1.87790  -0.00000   0.00000  -0.00000  -0.00000   1.87790
    R6        1.87750  -0.00000   0.00000  -0.00000  -0.00000   1.87750
    R7        1.87800  -0.00000   0.00000  -0.00000  -0.00000   1.87800
    R8        1.88809   0.00000   0.00000   0.00000   0.00000   1.88809
    A1        1.96629   0.00000   0.00000   0.00000   0.00000   1.96629
    A2        2.21297  -0.00000   0.00000  -0.00000  -0.00000   2.21297
    A3        2.10391  -0.00000   0.00000  -0.00000  -0.00000   2.10391
    A4        2.00957  -0.00000   0.00000   0.00000   0.00000   2.00957
    A5        2.01237   0.00000   0.00000   0.00000   0.00000   2.01237
    A6        1.97279   0.00000   0.00000   0.00000   0.00000   1.97279
    A7        1.96420  -0.00000   0.00000   0.00000   0.00000   1.96420
    A8        2.01388   0.00000   0.00000   0.00000   0.00000   2.01388
    A9        1.97944   0.00000   0.00000   0.00000   0.00000   1.97944
   A10        1.96247  -0.00000   0.00000  -0.00000  -0.00000   1.96247
    D1       -2.92805  -0.00000   0.00000   0.00000   0.00000  -2.92805
    D2       -0.58203   0.00000   0.00000   0.00000   0.00000  -0.58202
    D3        0.21907  -0.00000   0.00000   0.00000   0.00000   0.21907
    D4        2.56510   0.00000   0.00000   0.00000   0.00000   2.56510
    D5       -2.96119  -0.00000   0.00000   0.00000   0.00000  -2.96119
    D6       -0.65190   0.00000   0.00000   0.00000   0.00000  -0.65190
    D7        0.17526  -0.00000   0.00000   0.00000   0.00000   0.17526
    D8        2.48455   0.00000   0.00000   0.00000   0.00000   2.48455
    D9       -0.10136  -0.00000   0.00000  -0.00000  -0.00000  -0.10136
   D10        3.04616  -0.00000   0.00000  -0.00000  -0.00000   3.04616
         Item               Value     Threshold  Converged?
 Maximum Force            0.000000     0.000002     YES
 RMS     Force            0.000000     0.000001     YES
 Maximum Displacement     0.000003     0.000006     YES
 RMS     Displacement     0.000001     0.000004     YES
 Predicted change in Energy=-2.241498D-13
 Optimization completed.
    -- Stationary point found.
                           ----------------------------
                           !   Optimized Parameters   !
                           ! (Angstroms and Degrees)  !
 --------------------------                            --------------------------
 ! Name  Definition              Value          Derivative Info.                !
 --------------------------------------------------------------------------------
 ! R1    R(1,2)                  1.382          -DE/DX =    0.0                 !
 ! R2    R(1,3)                  1.3781         -DE/DX =    0.0                 !
 ! R3    R(1,4)                  1.2579         -DE/DX =    0.0                 !
 ! R4    R(2,7)                  0.9924         -DE/DX =    0.0                 !
 ! R5    R(2,8)                  0.9937         -DE/DX =    0.0                 !
 ! R6    R(3,5)                  0.9935         -DE/DX =    0.0                 !
 ! R7    R(3,6)                  0.9938         -DE/DX =    0.0                 !
 ! R8    R(4,9)                  0.9991         -DE/DX =    0.0                 !
 ! A1    A(2,1,3)              112.6599         -DE/DX =    0.0                 !
 ! A2    A(2,1,4)              126.794          -DE/DX =    0.0                 !
 ! A3    A(3,1,4)              120.5454         -DE/DX =    0.0                 !
 ! A4    A(1,2,7)              115.1399         -DE/DX =    0.0                 !
 ! A5    A(1,2,8)              115.3005         -DE/DX =    0.0                 !
 ! A6    A(7,2,8)              113.0324         -DE/DX =    0.0                 !
 ! A7    A(1,3,5)              112.5402         -DE/DX =    0.0                 !
 ! A8    A(1,3,6)              115.3871         -DE/DX =    0.0                 !
 ! A9    A(5,3,6)              113.4136         -DE/DX =    0.0                 !
 ! A10   A(1,4,9)              112.4412         -DE/DX =    0.0                 !
 ! D1    D(3,1,2,7)           -167.7651         -DE/DX =    0.0                 !
 ! D2    D(3,1,2,8)            -33.3476         -DE/DX =    0.0                 !
 ! D3    D(4,1,2,7)             12.552          -DE/DX =    0.0                 !
 ! D4    D(4,1,2,8)            146.9695         -DE/DX =    0.0                 !
 ! D5    D(2,1,3,5)           -169.6637         -DE/DX =    0.0                 !
 ! D6    D(2,1,3,6)            -37.3511         -DE/DX =    0.0                 !
 ! D7    D(4,1,3,5)             10.0414         -DE/DX =    0.0                 !
 ! D8    D(4,1,3,6)            142.354          -DE/DX =    0.0                 !
 ! D9    D(2,1,4,9)             -5.8076         -DE/DX =    0.0                 !
 ! D10   D(3,1,4,9)            174.5322         -DE/DX =    0.0                 !
 --------------------------------------------------------------------------------
 GradGradGradGradGradGradGradGradGradGradGradGradGradGradGradGradGradGrad

 Leave Link  103 at Sun Sep 28 21:12:35 2025, MaxMem=  1572864000 cpu:               0.1 elap:               0.0
 (Enter /software/sse/easybuild/prefix/software/Gaussian/16.C.01-avx2-nsc1/g16/l9999.exe)

 ----------------------------------------------------------------------

 Electric dipole moment (input orientation):
 (Debye = 10**-18 statcoulomb cm , SI units = C m)
                  (au)            (Debye)         (10**-30 SI)
   Tot        0.120254D+01      0.305655D+01      0.101956D+02
   x         -0.488457D+00     -0.124153D+01     -0.414131D+01
   y         -0.109806D+01     -0.279099D+01     -0.930974D+01
   z          0.421435D-01      0.107118D+00      0.357307D+00

 Dipole polarizability, Alpha (input orientation).
 (esu units = cm**3 , SI units = C**2 m**2 J**-1)
 Alpha(0;0):
               (au)            (10**-24 esu)      (10**-40 SI)
   iso        0.373833D+02      0.553963D+01      0.616367D+01
   aniso      0.149834D+02      0.222031D+01      0.247043D+01
   xx         0.386882D+02      0.573300D+01      0.637883D+01
   yx        -0.110332D+01     -0.163496D+00     -0.181913D+00
   yy         0.451941D+02      0.669708D+01      0.745150D+01
   zx        -0.843154D+00     -0.124943D+00     -0.139017D+00
   zy        -0.216672D-01     -0.321075D-02     -0.357244D-02
   zz         0.282674D+02      0.418880D+01      0.466067D+01

 First dipole hyperpolarizability, Beta (input orientation).
 ||, _|_  parallel and perpendicular components, (z) with respect to z axis,
 vector components x,y,z.  Values do not include the 1/n! factor of 1/2.
 (esu units = statvolt**-1 cm**4 , SI units = C**3 m**3 J**-2)
 Beta(0;0,0):
               (au)            (10**-30 esu)      (10**-50 SI)
   || (z)     0.952929D-01      0.823256D-03      0.305543D-03
   _|_(z)     0.317643D-01      0.274419D-03      0.101848D-03
   x          0.370637D+01      0.320201D-01      0.118840D-01
   y         -0.614640D+01     -0.531001D-01     -0.197076D-01
   z          0.476464D+00      0.411628D-02      0.152772D-02
   ||         0.143864D+01      0.124288D-01      0.461281D-02
   xxx       -0.188254D+02     -0.162637D+00     -0.603611D-01
   xxy        0.522038D+02      0.451000D+00      0.167384D+00
   yxy        0.166281D+02      0.143654D+00      0.533158D-01
   yyy       -0.488704D+02     -0.422202D+00     -0.156696D+00
   xxz        0.200775D+01      0.173454D-01      0.643757D-02
   yxz       -0.301547D+01     -0.260513D-01     -0.966867D-02
   yyz       -0.101395D+01     -0.875977D-02     -0.325110D-02
   zxz        0.343274D+01      0.296562D-01      0.110066D-01
   zyz       -0.538219D+01     -0.464979D-01     -0.172572D-01
   zzz       -0.834974D+00     -0.721353D-02     -0.267723D-02

 ----------------------------------------------------------------------

 Dipole orientation:
     6         -0.06412037          0.02264592         -0.16447265
     7         -1.06192264          0.71289944          2.14824362
     7          2.15910324         -1.31485236          0.06088362
     7         -0.97201803          0.50470255         -2.30781066
     1          3.03283838         -1.54126434         -1.58542339
     1          3.30153611         -0.75113965          1.44072226
     1         -2.82273823          1.35614418          2.09625614
     1         -0.76586234         -0.50577556          3.54598839
     1         -2.66371759          1.33665777         -2.20346313

 Electric dipole moment (dipole orientation):
 (Debye = 10**-18 statcoulomb cm , SI units = C m)
                  (au)            (Debye)         (10**-30 SI)
   Tot        0.120254D+01      0.305655D+01      0.101956D+02
   x          0.000000D+00      0.000000D+00      0.000000D+00
   y          0.000000D+00      0.000000D+00      0.000000D+00
   z          0.120254D+01      0.305655D+01      0.101956D+02

 Dipole polarizability, Alpha (dipole orientation).
 (esu units = cm**3 , SI units = C**2 m**2 J**-1)
 Alpha(0;0):
               (au)            (10**-24 esu)      (10**-40 SI)
   iso        0.373833D+02      0.553963D+01      0.616367D+01
   aniso      0.149834D+02      0.222031D+01      0.247043D+01
   xx         0.378995D+02      0.561613D+01      0.624879D+01
   yx        -0.515945D+01     -0.764552D+00     -0.850678D+00
   yy         0.309434D+02      0.458533D+01      0.510187D+01
   zx         0.278928D+01      0.413329D+00      0.459890D+00
   zy        -0.142125D+01     -0.210608D+00     -0.234333D+00
   zz         0.433069D+02      0.641742D+01      0.714034D+01

 First dipole hyperpolarizability, Beta (dipole orientation).
 ||, _|_  parallel and perpendicular components, (z) with respect to z axis,
 vector components x,y,z.  Values do not include the 1/n! factor of 1/2.
 (esu units = statvolt**-1 cm**4 , SI units = C**3 m**3 J**-2)
 Beta(0;0,0):
               (au)            (10**-30 esu)      (10**-50 SI)
   || (z)     0.824721D+00      0.712495D-02      0.264435D-02
   _|_(z)     0.274907D+00      0.237498D-02      0.881451D-03
   x          0.551159D+01      0.476159D-01      0.176722D-01
   y         -0.208822D+01     -0.180406D-01     -0.669559D-02
   z          0.412361D+01      0.356247D-01      0.132218D-01
   ||         0.143864D+01      0.124288D-01      0.461281D-02
   xxx       -0.370926D+02     -0.320451D+00     -0.118932D+00
   xxy        0.240320D+02      0.207617D+00      0.770551D-01
   yxy       -0.880879D+01     -0.761011D-01     -0.282442D-01
   yyy       -0.836632D+00     -0.722784D-02     -0.268254D-02
   xxz        0.240393D-01      0.207681D-03      0.770788D-04
   yxz        0.834811D+00      0.721212D-02      0.267671D-02
   yyz        0.364666D+01      0.315043D-01      0.116925D-01
   zxz        0.477385D+02      0.412424D+00      0.153067D+00
   zyz       -0.238914D+02     -0.206403D+00     -0.766044D-01
   zzz       -0.229616D+01     -0.198371D-01     -0.736233D-02

 ----------------------------------------------------------------------

 Test job not archived.
 1\1\NSC-N144\Freq\RHF\Aug-CC-pVTZ\C1H5N3\X_DAVVA\28-Sep-2025\0\\#P Geo
 m=AllCheck Guess=TCheck SCRF=Check Test GenChk RHF/Aug-CC-pVTZ Freq\\g
 uanidine\\0,1\C,0.0025360386,0.0939623498,-0.0058900256\N,-1.069308248
 6,-0.7633110196,0.1560580188\N,1.196665543,-0.5741332051,-0.1701196704
 \N,-0.0320292099,1.3513874211,-0.0078568207\H,1.9821242425,0.032384814
 5,-0.1222480003\H,1.3013647511,-1.3995016361,0.3734167977\H,-1.9633641
 19,-0.3381082099,0.0874313156\H,-1.006960805,-1.6202411954,-0.34324859
 9\H,-0.9647281928,1.7073606807,0.0324569839\\Version=ES64L-G16RevC.01\
 State=1-A\HF=-204.216558\RMSD=1.205e-09\RMSF=7.154e-08\ZeroPoint=0.081
 4299\Thermal=0.0857485\ETot=-204.1308095\HTot=-204.1298653\GTot=-204.1
 613502\Dipole=-0.4884569,-1.0980599,0.0421435\DipoleDeriv=1.5696802,-0
 .0292687,-0.1457336,-0.0972096,2.0777132,0.0018716,-0.0511741,0.007100
 9,0.2553918,-0.77978,-0.4806659,0.0442333,-0.3524495,-0.8181463,0.1494
 203,0.1462543,0.2841451,-0.4750663,-0.9239931,0.4385148,0.0737322,0.32
 59024,-0.6806817,-0.1526115,0.1829168,-0.2769263,-0.4941951,-0.5132154
 ,-0.0093304,0.0081217,0.1328971,-1.583526,-0.0091947,-0.027943,-0.0171
 04,-0.5913028,0.2051666,0.0105924,-0.0325913,-0.0218708,0.1467101,0.01
 12101,-0.0958285,0.0216413,0.2845066,0.1584583,-0.0016983,0.02605,-0.0
 44138,0.2347489,0.0686455,-0.0483472,0.1697097,0.2274457,0.1761098,0.0
 140919,-0.0266051,0.0475768,0.120755,-0.016059,-0.0899963,-0.0389396,0
 .2855097,0.1536563,-0.0130353,0.0385218,0.0187467,0.2259646,-0.0529665
 ,-0.0192478,-0.1614285,0.2473815,-0.0460827,0.0707995,0.0142709,-0.009
 4551,0.2764621,-0.0003158,0.0033658,0.0118014,0.2603289\Polar=38.68822
 64,-1.1033232,45.1941039,-0.8431543,-0.0216672,28.2674252\PolarDeriv=0
 .4047006,-0.7152077,1.6204951,-0.0638351,-0.172645,0.4452865,-2.006698
 7,0.4707107,-11.4230237,0.3776667,0.0115774,-3.3234872,-0.2927767,0.34
 55177,-0.1481248,-0.0177916,-2.1120317,0.0302638,2.3231546,-1.1883603,
 -0.0567576,0.6921161,-0.0091221,-0.9796992,-2.7314488,1.7151103,2.5839
 654,0.2763806,2.0818619,0.1686463,1.1051027,-0.2350427,2.9416287,-0.91
 31974,0.5403218,1.0952472,-1.3796811,-1.0863066,-0.9956164,-0.7485403,
 0.3330219,0.6895019,-2.2050439,-2.7685533,1.3137341,0.6126689,-2.14033
 04,0.6841239,-0.9865392,0.200165,-2.7647413,0.8488213,0.7100007,-1.317
 971,5.1208016,-1.3362989,1.0107826,-0.136621,0.2377655,-0.0342964,2.05
 38986,1.1635313,14.0636571,-0.1834177,-0.0653547,4.6170043,0.2426708,0
 .5784294,0.2488288,-0.0598987,4.3377883,-0.0187831,5.9084437,1.1885055
 ,1.661231,0.2370072,-0.026709,0.8999494,3.2532406,1.4489369,1.1364299,
 -0.0205911,-0.0629585,0.4583238,0.1764718,0.157398,-0.1705766,0.589827
 ,-0.0030571,-0.2617726,1.0636746,-0.8998299,0.9440198,0.5350134,-0.272
 796,0.3269119,-2.0755704,2.0997952,-5.3875697,-0.6486614,2.1083236,-1.
 8746651,0.8368056,-0.7763503,3.0049135,0.8197834,-1.9600627,1.1663952,
 -6.7695392,0.4525585,-1.4441507,-0.3158064,-0.0703386,-0.9490965,2.316
 6294,-0.9814597,0.3123345,-0.0539677,0.0192811,0.2141713,-0.3344245,0.
 1247001,0.1428117,-0.5646325,-0.1149289,0.2140231,-0.4168099,-0.591528
 5,-0.0698505,-0.3830469,0.0852691,0.0140885,-1.6166933,-1.5014966,-6.5
 128609,-0.2240243,-1.9793477,-1.6913887,-0.5805869,-0.2710742,-3.17060
 33,-0.358406,-1.7685916,-0.9322412,-6.2547449,4.1764678,-2.6701534,0.1
 83713,-0.1044458,-0.412646,3.0116865,-1.6465748,3.9133333,-0.136054,0.
 0269472,0.7472715,-0.1667236,-0.123743,-0.0841366,-0.3445055,0.3705612
 ,0.0248385\HyperPolar=-18.8254075,52.2038043,16.6281251,-48.8704205,2.
 0077497,-3.0154655,-1.0139538,3.4327382,-5.3821852,-0.8349744\Quadrupo
 le=4.4286057,-1.6289763,-2.7996294,-1.7635831,1.6602186,0.1514366\PG=C
 01 [X(C1H5N3)]\NImag=0\\0.75455794,-0.03709835,1.05473333,-0.04435826,
 -0.00407279,0.25744214,-0.26149046,-0.07419390,0.04736978,0.83029283,-
 0.07377073,-0.21273130,0.01245232,-0.07104192,0.78552466,0.00023180,-0
 .02220933,-0.07643520,-0.00944936,0.21741218,0.18574076,-0.29552623,0.
 06835681,0.05110333,-0.06291957,0.01445606,0.01254504,0.79497118,0.066
 49392,-0.17835225,-0.00330693,-0.02966700,0.02107271,0.00141873,0.0657
 2091,0.80790392,-0.00074300,0.02334320,-0.07849750,0.01252820,0.000556
 23,0.00839602,0.02434547,-0.23135414,0.21823166,-0.14942211,0.06147969
 ,0.00451555,0.00712652,-0.05436655,0.00158427,-0.00557566,0.06624635,0
 .00182430,0.58114806,-0.00983829,-0.63280095,0.00334439,-0.02684642,-0
 .06324325,0.00814891,0.04145304,-0.05804706,-0.01023772,-0.17829865,0.
 84682860,0.00341312,0.00101831,-0.08914347,-0.00312535,0.00594851,0.03
 684044,0.00170343,-0.00770027,0.00983232,-0.02652873,0.00401511,0.0738
 2250,-0.03129293,-0.03017769,-0.00422579,-0.00476127,0.00562394,0.0004
 2274,-0.34046773,-0.19790354,-0.01703520,0.00506070,-0.00241488,0.0001
 0574,0.36103025,0.01823835,0.02231134,-0.00006750,0.00488197,-0.002669
 25,-0.00058611,-0.21577549,-0.24053946,0.00855042,-0.00004658,-0.00201
 139,-0.00080524,0.21878740,0.23713215,0.01294515,-0.00181217,-0.003234
 64,0.00107613,-0.00146033,0.00317938,-0.05410372,-0.01377023,-0.019876
 13,-0.00126609,0.00307682,-0.00173721,0.01949379,0.00014134,0.02276582
 ,0.00722960,0.03065756,-0.02685327,0.00057924,-0.00179167,0.00166525,-
 0.09067101,0.03209592,-0.02185694,-0.00605774,0.00364814,0.00076753,0.
 01004835,-0.02671025,0.02146207,0.08005318,0.00431711,-0.02003518,0.00
 939728,-0.00401767,0.00084844,-0.00025886,0.02880988,-0.34463898,0.206
 27690,0.00313936,0.00146422,0.00112026,0.00715127,-0.01480031,0.012295
 43,-0.03936709,0.37730031,0.00929809,-0.01639176,-0.00125227,-0.000346
 15,-0.00099536,-0.00027392,-0.03402472,0.25210835,-0.15509416,0.001348
 96,0.00120687,0.00018656,0.00027445,-0.00778059,-0.00105068,0.02407363
 ,-0.22693304,0.15629573,-0.02783490,0.02270876,-0.00514519,-0.42240803
 ,0.16170531,-0.02354425,-0.00261214,-0.00611734,0.00024371,0.00485932,
 0.00158866,0.00188209,-0.00106554,0.00106321,0.00036575,0.00041702,0.0
 0002559,-0.00000245,0.44366581,-0.02679061,0.02058616,-0.00165957,0.17
 558906,-0.16300283,-0.00701236,-0.00475837,-0.00394339,0.00085022,0.00
 087340,-0.00027353,0.00006044,-0.00132682,0.00104641,0.00016632,-0.000
 20233,-0.00018486,-0.00024003,-0.17625726,0.15767266,0.01245922,0.0037
 1253,-0.00498786,-0.06333009,0.00749198,-0.01555704,0.00129021,0.00171
 085,0.00287321,-0.00119413,-0.00356393,-0.00382074,0.00043779,-0.00011
 882,0.00179493,0.00041851,-0.00110090,-0.00038247,0.02853815,-0.001139
 04,0.01888908,0.01394087,-0.02809533,-0.02303812,-0.08824767,0.0225934
 9,0.01700777,-0.00044951,0.00162559,0.00159335,-0.00558755,-0.00480198
 ,0.00415765,0.00029713,0.00025972,0.00020825,-0.00161163,-0.00064698,-
 0.00168171,0.00394371,0.03291124,0.02153657,0.07754905,0.00170227,-0.0
 2654173,-0.01285858,0.02517511,-0.37024660,-0.19729810,0.00388345,0.00
 232454,0.00055416,-0.00408662,0.00069219,0.00104449,0.00015978,-0.0002
 0816,0.00115069,0.00014227,0.00048384,-0.00020107,-0.00259680,-0.01000
 812,-0.00713425,-0.02402242,0.40269839,0.00590526,0.01757119,-0.001911
 26,0.01473628,-0.24185356,-0.13263535,-0.00047074,0.00059133,-0.000456
 87,0.00213438,0.00005443,0.00361398,-0.00008909,0.00014673,-0.00045431
 ,-0.00162068,-0.00006166,0.00004609,-0.00154920,0.00864354,-0.00060347
 ,-0.01906797,0.21539591,0.13330115,-0.01016178,-0.01363754,0.00063197,
 0.00182842,-0.00340793,-0.00046325,0.00325067,0.00150520,-0.00089989,-
 0.43155154,0.17551038,0.01762452,0.00115104,-0.00069833,-0.00018132,0.
 00001298,0.00058853,0.00105988,0.00103475,-0.00003830,-0.00015622,0.00
 016561,-0.00035705,0.00002176,0.43426986,0.05674635,-0.02716942,-0.003
 22862,0.00012077,0.00444743,0.00038494,-0.00214629,-0.00578002,0.00146
 074,0.10505960,-0.09260882,-0.00470160,0.00010054,-0.00026133,0.000212
 11,0.00152746,-0.00043748,-0.00077337,-0.00212013,-0.00189251,0.000141
 58,0.00017666,0.00080566,-0.00048791,-0.15946496,0.12289650,0.00084862
 ,-0.00115917,-0.00197995,0.00054057,0.00044802,-0.00925509,-0.00238829
 ,0.00030231,0.01459145,0.01758148,-0.00604489,-0.02959437,0.00061557,0
 .00051977,-0.00138715,0.00194390,-0.00073541,0.00152512,-0.00078861,0.
 00033048,0.00179435,-0.00071578,-0.00065325,-0.00089996,-0.01763746,0.
 00699213,0.02520559\\-0.00000006,0.00000027,0.00000001,-0.00000004,-0.
 00000003,0.00000005,0.00000006,-0.00000005,-0.00000006,-0.00000001,-0.
 00000020,-0.00000002,0.00000003,0.,0.,0.,0.,0.00000004,0.,-0.00000002,
 0.,0.,0.00000002,-0.00000004,0.00000002,0.,0.00000001\\\@


 The earth never tires,
 The earth is rude, silent, incomprehensible at first,
 Nature is rude and incomprehensible at first,
 Be not discouraged, keep on,
 There are divine things well envelop'd,
 I swear to you there are divine things more beautiful than words can tell.
                                 -- Walt Whitman
 Job cpu time:       0 days  0 hours 32 minutes 20.9 seconds.
 Elapsed time:       0 days  0 hours  4 minutes  7.7 seconds.
 File lengths (MBytes):  RWF=     73 Int=      0 D2E=      0 Chk=     12 Scr=      1
 Normal termination of Gaussian 16 at Sun Sep 28 21:12:35 2025.
