 Entering Gaussian System, Link 0=/software/sse/easybuild/prefix/software/Gaussian/16.C.01-avx2-nsc1/g16/g16.orig
 Input=butanoate.wrap
 Output=butanoate.log
 Initial command:
 /software/sse/easybuild/prefix/software/Gaussian/16.C.01-avx2-nsc1/g16/l1.exe "/scratch/local/Gau-1256115.inp" -scrdir="/scratch/local/"
 Entering Link 1 = /software/sse/easybuild/prefix/software/Gaussian/16.C.01-avx2-nsc1/g16/l1.exe PID=   1256116.
  
 Copyright (c) 1988-2019, Gaussian, Inc.  All Rights Reserved.
  
 This is part of the Gaussian(R) 16 program.  It is based on
 the Gaussian(R) 09 system (copyright 2009, Gaussian, Inc.),
 the Gaussian(R) 03 system (copyright 2003, Gaussian, Inc.),
 the Gaussian(R) 98 system (copyright 1998, Gaussian, Inc.),
 the Gaussian(R) 94 system (copyright 1995, Gaussian, Inc.),
 the Gaussian 92(TM) system (copyright 1992, Gaussian, Inc.),
 the Gaussian 90(TM) system (copyright 1990, Gaussian, Inc.),
 the Gaussian 88(TM) system (copyright 1988, Gaussian, Inc.),
 the Gaussian 86(TM) system (copyright 1986, Carnegie Mellon
 University), and the Gaussian 82(TM) system (copyright 1983,
 Carnegie Mellon University). Gaussian is a federally registered
 trademark of Gaussian, Inc.
  
 This software contains proprietary and confidential information,
 including trade secrets, belonging to Gaussian, Inc.
  
 This software is provided under written license and may be
 used, copied, transmitted, or stored only in accord with that
 written license.
  
 The following legend is applicable only to US Government
 contracts under FAR:
  
                    RESTRICTED RIGHTS LEGEND
  
 Use, reproduction and disclosure by the US Government is
 subject to restrictions as set forth in subparagraphs (a)
 and (c) of the Commercial Computer Software - Restricted
 Rights clause in FAR 52.227-19.
  
 Gaussian, Inc.
 340 Quinnipiac St., Bldg. 40, Wallingford CT 06492
  
  
 ---------------------------------------------------------------
 Warning -- This program may not be used in any manner that
 competes with the business of Gaussian, Inc. or will provide
 assistance to any competitor of Gaussian, Inc.  The licensee
 of this program is prohibited from giving any competitor of
 Gaussian, Inc. access to this program.  By using this program,
 the user acknowledges that Gaussian, Inc. is engaged in the
 business of creating and licensing software in the field of
 computational chemistry and represents and warrants to the
 licensee that it is not a competitor of Gaussian, Inc. and that
 it will not use this program in any manner prohibited above.
 ---------------------------------------------------------------
  

 Cite this work as:
 Gaussian 16, Revision C.01,
 M. J. Frisch, G. W. Trucks, H. B. Schlegel, G. E. Scuseria, 
 M. A. Robb, J. R. Cheeseman, G. Scalmani, V. Barone, 
 G. A. Petersson, H. Nakatsuji, X. Li, M. Caricato, A. V. Marenich, 
 J. Bloino, B. G. Janesko, R. Gomperts, B. Mennucci, H. P. Hratchian, 
 J. V. Ortiz, A. F. Izmaylov, J. L. Sonnenberg, D. Williams-Young, 
 F. Ding, F. Lipparini, F. Egidi, J. Goings, B. Peng, A. Petrone, 
 T. Henderson, D. Ranasinghe, V. G. Zakrzewski, J. Gao, N. Rega, 
 G. Zheng, W. Liang, M. Hada, M. Ehara, K. Toyota, R. Fukuda, 
 J. Hasegawa, M. Ishida, T. Nakajima, Y. Honda, O. Kitao, H. Nakai, 
 T. Vreven, K. Throssell, J. A. Montgomery, Jr., J. E. Peralta, 
 F. Ogliaro, M. J. Bearpark, J. J. Heyd, E. N. Brothers, K. N. Kudin, 
 V. N. Staroverov, T. A. Keith, R. Kobayashi, J. Normand, 
 K. Raghavachari, A. P. Rendell, J. C. Burant, S. S. Iyengar, 
 J. Tomasi, M. Cossi, J. M. Millam, M. Klene, C. Adamo, R. Cammi, 
 J. W. Ochterski, R. L. Martin, K. Morokuma, O. Farkas, 
 J. B. Foresman, and D. J. Fox, Gaussian, Inc., Wallingford CT, 2019.
 
 ******************************************
 Gaussian 16:  ES64L-G16RevC.01  3-Jul-2019
                30-Sep-2025 
 ******************************************
 %mem=12000MB
 %nprocshared=16
 Will use up to   16 processors via shared memory.
 %mem=32Gb
 %chk=butanoate.chk
 ----------------------------------------------------------------------
 #P MP2/aug-cc-pvtz Opt=tight density=MP2 Pop=(MK,Hirshfeld) iop(6/33=2
 ) iop(6/42=6) maxdisk=128GB
 ----------------------------------------------------------------------
 1/7=10,18=20,19=15,38=1/1,3;
 2/9=110,12=2,17=6,18=5,40=1/2;
 3/5=16,6=1,7=10,11=9,25=1,30=1,71=1/1,2,3;
 4//1;
 5/5=2,38=5/2;
 8/6=4,10=1/1;
 9/15=2,16=-3/6;
 10/5=1/2;
 6/7=2,8=2,9=2,10=2,15=8,20=1,22=2,33=2,42=6,79=1/1,2;
 7/12=2/1,2,3,16;
 1/7=10,18=20,19=15/3(2);
 2/9=110/2;
 99//99;
 2/9=110/2;
 3/5=16,6=1,7=10,11=9,25=1,30=1,71=1/1,2,3;
 4/5=5,16=3,69=1/1;
 5/5=2,38=5/2;
 8/6=4,10=1/1;
 9/15=2,16=-3/6;
 10/5=1/2;
 7/12=2/1,2,3,16;
 1/7=10,18=20,19=15/3(-8);
 2/9=110/2;
 6/7=2,8=2,9=2,10=2,15=8,20=1,22=2,33=2,42=6,79=1/1,2;
 99/9=10/99;
 Leave Link    1 at Tue Sep 30 16:58:49 2025, MaxMem=  4294967296 cpu:               0.9 elap:               0.1
 (Enter /software/sse/easybuild/prefix/software/Gaussian/16.C.01-avx2-nsc1/g16/l101.exe)
 ---------
 butanoate
 ---------
 Symbolic Z-matrix:
 Charge = -1 Multiplicity = 1
 C                     0.14692  -0.56976   0.00004 
 C                    -1.29168   0.00921   0. 
 O                    -1.39838   1.23574   0.00003 
 O                    -2.18334  -0.84156  -0.00003 
 C                     1.27723   0.4501   -0.00005 
 H                     0.22953  -1.22197   0.86679 
 H                     0.22953  -1.22211  -0.8666 
 H                     1.17471   1.09734   0.8637 
 H                     1.17471   1.09719  -0.86391 
 C                     2.6638   -0.19256   0.00001 
 H                     2.80747  -0.82075   0.87534 
 H                     3.45272   0.55581  -0.00006 
 H                     2.80747  -0.82091  -0.87521 
 
 ITRead=  0  0  0  0  0  0  0  0  0  0  0  0  0
 MicOpt= -1 -1 -1 -1 -1 -1 -1 -1 -1 -1 -1 -1 -1
 NAtoms=     13 NQM=       13 NQMF=       0 NMMI=      0 NMMIF=      0
                NMic=       0 NMicF=      0.
                    Isotopes and Nuclear Properties:
 (Nuclear quadrupole moments (NQMom) in fm**2, nuclear magnetic moments (NMagM)
  in nuclear magnetons)

  Atom         1           2           3           4           5           6           7           8           9          10
 IAtWgt=          12          12          16          16          12           1           1           1           1          12
 AtmWgt=  12.0000000  12.0000000  15.9949146  15.9949146  12.0000000   1.0078250   1.0078250   1.0078250   1.0078250  12.0000000
 NucSpn=           0           0           0           0           0           1           1           1           1           0
 AtZEff=  -0.0000000  -0.0000000  -0.0000000  -0.0000000  -0.0000000  -0.0000000  -0.0000000  -0.0000000  -0.0000000  -0.0000000
 NQMom=    0.0000000   0.0000000   0.0000000   0.0000000   0.0000000   0.0000000   0.0000000   0.0000000   0.0000000   0.0000000
 NMagM=    0.0000000   0.0000000   0.0000000   0.0000000   0.0000000   2.7928460   2.7928460   2.7928460   2.7928460   0.0000000
 AtZNuc=   6.0000000   6.0000000   8.0000000   8.0000000   6.0000000   1.0000000   1.0000000   1.0000000   1.0000000   6.0000000

  Atom        11          12          13
 IAtWgt=           1           1           1
 AtmWgt=   1.0078250   1.0078250   1.0078250
 NucSpn=           1           1           1
 AtZEff=  -0.0000000  -0.0000000  -0.0000000
 NQMom=    0.0000000   0.0000000   0.0000000
 NMagM=    2.7928460   2.7928460   2.7928460
 AtZNuc=   1.0000000   1.0000000   1.0000000
 Leave Link  101 at Tue Sep 30 16:58:50 2025, MaxMem=  4294967296 cpu:               5.0 elap:               0.3
 (Enter /software/sse/easybuild/prefix/software/Gaussian/16.C.01-avx2-nsc1/g16/l103.exe)

 GradGradGradGradGradGradGradGradGradGradGradGradGradGradGradGradGradGrad
 Berny optimization.
 Initialization pass.
                           ----------------------------
                           !    Initial Parameters    !
                           ! (Angstroms and Degrees)  !
 --------------------------                            --------------------------
 ! Name  Definition              Value          Derivative Info.                !
 --------------------------------------------------------------------------------
 ! R1    R(1,2)                  1.5507         estimate D2E/DX2                !
 ! R2    R(1,5)                  1.5224         estimate D2E/DX2                !
 ! R3    R(1,6)                  1.0879         estimate D2E/DX2                !
 ! R4    R(1,7)                  1.0879         estimate D2E/DX2                !
 ! R5    R(2,3)                  1.2312         estimate D2E/DX2                !
 ! R6    R(2,4)                  1.2324         estimate D2E/DX2                !
 ! R7    R(5,8)                  1.0842         estimate D2E/DX2                !
 ! R8    R(5,9)                  1.0842         estimate D2E/DX2                !
 ! R9    R(5,10)                 1.5283         estimate D2E/DX2                !
 ! R10   R(10,11)                1.087          estimate D2E/DX2                !
 ! R11   R(10,12)                1.0874         estimate D2E/DX2                !
 ! R12   R(10,13)                1.087          estimate D2E/DX2                !
 ! A1    A(2,1,5)              116.0181         estimate D2E/DX2                !
 ! A2    A(2,1,6)              107.1157         estimate D2E/DX2                !
 ! A3    A(2,1,7)              107.1162         estimate D2E/DX2                !
 ! A4    A(5,1,6)              110.1997         estimate D2E/DX2                !
 ! A5    A(5,1,7)              110.1993         estimate D2E/DX2                !
 ! A6    A(6,1,7)              105.6308         estimate D2E/DX2                !
 ! A7    A(1,2,3)              116.8943         estimate D2E/DX2                !
 ! A8    A(1,2,4)              114.4218         estimate D2E/DX2                !
 ! A9    A(3,2,4)              128.6838         estimate D2E/DX2                !
 ! A10   A(1,5,8)              109.2482         estimate D2E/DX2                !
 ! A11   A(1,5,9)              109.2484         estimate D2E/DX2                !
 ! A12   A(1,5,10)             113.0734         estimate D2E/DX2                !
 ! A13   A(8,5,9)              105.6361         estimate D2E/DX2                !
 ! A14   A(8,5,10)             109.6819         estimate D2E/DX2                !
 ! A15   A(9,5,10)             109.6822         estimate D2E/DX2                !
 ! A16   A(5,10,11)            111.2837         estimate D2E/DX2                !
 ! A17   A(5,10,12)            111.6438         estimate D2E/DX2                !
 ! A18   A(5,10,13)            111.2835         estimate D2E/DX2                !
 ! A19   A(11,10,12)           107.5719         estimate D2E/DX2                !
 ! A20   A(11,10,13)           107.2696         estimate D2E/DX2                !
 ! A21   A(12,10,13)           107.5717         estimate D2E/DX2                !
 ! D1    D(5,1,2,3)             -0.0068         estimate D2E/DX2                !
 ! D2    D(5,1,2,4)            179.9946         estimate D2E/DX2                !
 ! D3    D(6,1,2,3)            123.5217         estimate D2E/DX2                !
 ! D4    D(6,1,2,4)            -56.4769         estimate D2E/DX2                !
 ! D5    D(7,1,2,3)           -123.5351         estimate D2E/DX2                !
 ! D6    D(7,1,2,4)             56.4663         estimate D2E/DX2                !
 ! D7    D(2,1,5,8)             57.5534         estimate D2E/DX2                !
 ! D8    D(2,1,5,9)            -57.5541         estimate D2E/DX2                !
 ! D9    D(2,1,5,10)           179.9994         estimate D2E/DX2                !
 ! D10   D(6,1,5,8)            -64.3539         estimate D2E/DX2                !
 ! D11   D(6,1,5,9)           -179.4614         estimate D2E/DX2                !
 ! D12   D(6,1,5,10)            58.0921         estimate D2E/DX2                !
 ! D13   D(7,1,5,8)            179.461          estimate D2E/DX2                !
 ! D14   D(7,1,5,9)             64.3535         estimate D2E/DX2                !
 ! D15   D(7,1,5,10)           -58.093          estimate D2E/DX2                !
 ! D16   D(1,5,10,11)          -59.7911         estimate D2E/DX2                !
 ! D17   D(1,5,10,12)          179.9998         estimate D2E/DX2                !
 ! D18   D(1,5,10,13)           59.7911         estimate D2E/DX2                !
 ! D19   D(8,5,10,11)           62.4127         estimate D2E/DX2                !
 ! D20   D(8,5,10,12)          -57.7964         estimate D2E/DX2                !
 ! D21   D(8,5,10,13)         -178.0051         estimate D2E/DX2                !
 ! D22   D(9,5,10,11)          178.0047         estimate D2E/DX2                !
 ! D23   D(9,5,10,12)           57.7956         estimate D2E/DX2                !
 ! D24   D(9,5,10,13)          -62.4131         estimate D2E/DX2                !
 --------------------------------------------------------------------------------
 Trust Radius=3.00D-01 FncErr=1.00D-07 GrdErr=1.00D-07 EigMax=2.50D+02 EigMin=1.00D-04
 Number of steps in this run=     67 maximum allowed number of steps=    100.
 GradGradGradGradGradGradGradGradGradGradGradGradGradGradGradGradGradGrad

 Leave Link  103 at Tue Sep 30 16:58:50 2025, MaxMem=  4294967296 cpu:               0.2 elap:               0.0
 (Enter /software/sse/easybuild/prefix/software/Gaussian/16.C.01-avx2-nsc1/g16/l202.exe)
                          Input orientation:                          
 ---------------------------------------------------------------------
 Center     Atomic      Atomic             Coordinates (Angstroms)
 Number     Number       Type             X           Y           Z
 ---------------------------------------------------------------------
      1          6           0        0.146920   -0.569760    0.000040
      2          6           0       -1.291680    0.009210    0.000000
      3          8           0       -1.398380    1.235740    0.000030
      4          8           0       -2.183340   -0.841560   -0.000030
      5          6           0        1.277230    0.450100   -0.000050
      6          1           0        0.229530   -1.221970    0.866790
      7          1           0        0.229530   -1.222110   -0.866600
      8          1           0        1.174710    1.097340    0.863700
      9          1           0        1.174710    1.097190   -0.863910
     10          6           0        2.663800   -0.192560    0.000010
     11          1           0        2.807470   -0.820750    0.875340
     12          1           0        3.452720    0.555810   -0.000060
     13          1           0        2.807470   -0.820910   -0.875210
 ---------------------------------------------------------------------
                    Distance matrix (angstroms):
                    1          2          3          4          5
     1  C    0.000000
     2  C    1.550734   0.000000
     3  O    2.376506   1.231162   0.000000
     4  O    2.346058   1.232423   2.220661   0.000000
     5  C    1.522404   2.606469   2.788569   3.693769   0.000000
     6  H    1.087868   2.140376   3.072735   2.591916   2.155204
     7  H    1.087865   2.140379   3.072811   2.591853   2.155196
     8  H    2.140440   2.830739   2.717696   3.972639   1.084202
     9  H    2.140440   2.830746   2.717790   3.972599   1.084200
    10  C    2.544988   3.960623   4.305966   4.890395   1.528263
    11  H    2.812058   4.272948   4.762824   5.067040   2.173247
    12  H    3.492166   4.775783   4.898518   5.806704   2.178057
    13  H    2.812057   4.272952   4.762880   5.067006   2.173248
                    6          7          8          9         10
     6  H    0.000000
     7  H    1.733390   0.000000
     8  H    2.504511   3.044200   0.000000
     9  H    3.044206   2.504501   1.727610   0.000000
    10  C    2.781486   2.781485   2.151091   2.151093   0.000000
    11  H    2.608989   3.137072   2.518950   3.060946   1.086953
    12  H    3.781651   3.781646   2.495729   2.495728   1.087406
    13  H    3.137067   2.608986   3.060947   2.518956   1.086957
                   11         12         13
    11  H    0.000000
    12  H    1.754306   0.000000
    13  H    1.750550   1.754307   0.000000
 Stoichiometry    C4H7O2(1-)
 Framework group  C1[X(C4H7O2)]
 Deg. of freedom    33
 Full point group                 C1      NOp   1
 Largest Abelian subgroup         C1      NOp   1
 Largest concise Abelian subgroup C1      NOp   1
                         Standard orientation:                         
 ---------------------------------------------------------------------
 Center     Atomic      Atomic             Coordinates (Angstroms)
 Number     Number       Type             X           Y           Z
 ---------------------------------------------------------------------
      1          6           0        0.146919   -0.569760    0.000039
      2          6           0       -1.291680    0.009212   -0.000001
      3          8           0       -1.398379    1.235742    0.000029
      4          8           0       -2.183341   -0.841557   -0.000031
      5          6           0        1.277230    0.450099   -0.000051
      6          1           0        0.229529   -1.221970    0.866789
      7          1           0        0.229529   -1.222110   -0.866601
      8          1           0        1.174711    1.097339    0.863699
      9          1           0        1.174711    1.097189   -0.863911
     10          6           0        2.663800   -0.192562    0.000009
     11          1           0        2.807469   -0.820752    0.875339
     12          1           0        3.452721    0.555807   -0.000061
     13          1           0        2.807469   -0.820912   -0.875211
 ---------------------------------------------------------------------
 Rotational constants (GHZ):           9.3293641           1.8978111           1.6232280
 Leave Link  202 at Tue Sep 30 16:58:50 2025, MaxMem=  4294967296 cpu:               0.1 elap:               0.0
 (Enter /software/sse/easybuild/prefix/software/Gaussian/16.C.01-avx2-nsc1/g16/l301.exe)
 Standard basis: Aug-CC-pVTZ (5D, 7F)
 Ernie: Thresh=  0.10000D-02 Tol=  0.10000D-05 Strict=F.
 Ernie:  18 primitive shells out of 257 were deleted.
 There are   505 symmetry adapted cartesian basis functions of A   symmetry.
 There are   437 symmetry adapted basis functions of A   symmetry.
   437 basis functions,   621 primitive gaussians,   505 cartesian basis functions
    24 alpha electrons       24 beta electrons
       nuclear repulsion energy       229.2771285328 Hartrees.
 IExCor=    0 DFT=F Ex=HF Corr=None ExCW=0 ScaHFX=  1.000000
 ScaDFX=  1.000000  1.000000  1.000000  1.000000 ScalE2=  1.000000  1.000000
 IRadAn=      5 IRanWt=     -1 IRanGd=            0 ICorTp=0 IEmpDi=  4
 NAtoms=   13 NActive=   13 NUniq=   13 SFac= 1.00D+00 NAtFMM=   60 NAOKFM=F Big=F
 Integral buffers will be    131072 words long.
 Raffenetti 1 integral format.
 Two-electron integral symmetry is turned on.
 Leave Link  301 at Tue Sep 30 16:58:51 2025, MaxMem=  4294967296 cpu:               0.8 elap:               0.1
 (Enter /software/sse/easybuild/prefix/software/Gaussian/16.C.01-avx2-nsc1/g16/l302.exe)
 NPDir=0 NMtPBC=     1 NCelOv=     1 NCel=       1 NClECP=     1 NCelD=      1
         NCelK=      1 NCelE2=     1 NClLst=     1 CellRange=     0.0.
 One-electron integrals computed using PRISM.
 One-electron integral symmetry used in STVInt
 NBasis=   437 RedAO= T EigKep=  1.05D-05  NBF=   437
 NBsUse=   437 1.00D-06 EigRej= -1.00D+00 NBFU=   437
 Leave Link  302 at Tue Sep 30 16:58:51 2025, MaxMem=  4294967296 cpu:               4.2 elap:               0.3
 (Enter /software/sse/easybuild/prefix/software/Gaussian/16.C.01-avx2-nsc1/g16/l303.exe)
 DipDrv:  MaxL=1.
 Leave Link  303 at Tue Sep 30 16:58:52 2025, MaxMem=  4294967296 cpu:               0.7 elap:               0.1
 (Enter /software/sse/easybuild/prefix/software/Gaussian/16.C.01-avx2-nsc1/g16/l401.exe)
 ExpMin= 2.53D-02 ExpMax= 1.53D+04 ExpMxC= 5.22D+02 IAcc=3 IRadAn=         5 AccDes= 0.00D+00
 Harris functional with IExCor=  205 and IRadAn=       5 diagonalized for initial guess.
 HarFok:  IExCor=  205 AccDes= 0.00D+00 IRadAn=         5 IDoV= 1 UseB2=F ITyADJ=14
 ICtDFT=  3500011 ScaDFX=  1.000000  1.000000  1.000000  1.000000
 FoFCou: FMM=F IPFlag=           0 FMFlag=      100000 FMFlg1=           0
         NFxFlg=           0 DoJE=T BraDBF=F KetDBF=T FulRan=T
         wScrn=  0.000000 ICntrl=       500 IOpCl=  0 I1Cent=   200000004 NGrid=           0
         NMat0=    1 NMatS0=      1 NMatT0=    0 NMatD0=    1 NMtDS0=    0 NMtDT0=    0
 Petite list used in FoFCou.
 Harris En= -306.074330186626    
 JPrj=0 DoOrth=F DoCkMO=F.
 Leave Link  401 at Tue Sep 30 16:58:53 2025, MaxMem=  4294967296 cpu:               9.7 elap:               0.6
 (Enter /software/sse/easybuild/prefix/software/Gaussian/16.C.01-avx2-nsc1/g16/l502.exe)
 Integral symmetry usage will be decided dynamically.
 Closed shell SCF:
 Using DIIS extrapolation, IDIIS=  1040.
 NGot=  4294967296 LenX=  4294444684 LenY=  4294189154
 Requested convergence on RMS density matrix=1.00D-08 within 128 cycles.
 Requested convergence on MAX density matrix=1.00D-06.
 Requested convergence on             energy=1.00D-06.
 No special actions if energy rises.
 Fock matrices will be formed incrementally for  20 cycles.

 Cycle   1  Pass 1  IDiag  1:
 FoFJK:  IHMeth= 1 ICntrl=       0 DoSepK=F KAlg= 0 I1Cent=           0 FoldK=F
 IRaf= 980000000 NMat=       1 IRICut=       1 DoRegI=T DoRafI=F ISym2E= 0 IDoP0=0 IntGTp=1.
 FoFCou: FMM=F IPFlag=           0 FMFlag=      100000 FMFlg1=           0
         NFxFlg=           0 DoJE=F BraDBF=F KetDBF=F FulRan=T
         wScrn=  0.000000 ICntrl=         0 IOpCl=  0 I1Cent=           0 NGrid=           0
         NMat0=    1 NMatS0=      1 NMatT0=    0 NMatD0=    1 NMtDS0=    0 NMtDT0=    0
 Symmetry not used in FoFCou.
 E= -304.999583055395    
 DIIS: error= 3.97D-02 at cycle   1 NSaved=   1.
 NSaved= 1 IEnMin= 1 EnMin= -304.999583055395     IErMin= 1 ErrMin= 3.97D-02
 ErrMax= 3.97D-02  0.00D+00 EMaxC= 1.00D-01 BMatC= 7.80D-01 BMatP= 7.80D-01
 IDIUse=3 WtCom= 6.03D-01 WtEn= 3.97D-01
 Coeff-Com:  0.100D+01
 Coeff-En:   0.100D+01
 Coeff:      0.100D+01
 Gap=     0.583 Goal=   None    Shift=    0.000
 GapD=    0.583 DampG=2.000 DampE=0.500 DampFc=1.0000 IDamp=-1.
 RMSDP=2.20D-03 MaxDP=9.33D-02              OVMax= 1.47D-01

 Cycle   2  Pass 1  IDiag  1:
 RMSU=  2.14D-03    CP:  9.31D-01
 E= -305.336493505770     Delta-E=       -0.336910450374 Rises=F Damp=F
 DIIS: error= 1.75D-02 at cycle   2 NSaved=   2.
 NSaved= 2 IEnMin= 2 EnMin= -305.336493505770     IErMin= 2 ErrMin= 1.75D-02
 ErrMax= 1.75D-02  0.00D+00 EMaxC= 1.00D-01 BMatC= 1.23D-01 BMatP= 7.80D-01
 IDIUse=3 WtCom= 8.25D-01 WtEn= 1.75D-01
 Coeff-Com:  0.231D+00 0.769D+00
 Coeff-En:   0.000D+00 0.100D+01
 Coeff:      0.191D+00 0.809D+00
 Gap=     0.325 Goal=   None    Shift=    0.000
 RMSDP=1.05D-03 MaxDP=5.74D-02 DE=-3.37D-01 OVMax= 6.86D-02

 Cycle   3  Pass 1  IDiag  1:
 RMSU=  8.77D-04    CP:  9.52D-01  7.43D-01
 E= -305.420349802867     Delta-E=       -0.083856297097 Rises=F Damp=F
 DIIS: error= 6.59D-03 at cycle   3 NSaved=   3.
 NSaved= 3 IEnMin= 3 EnMin= -305.420349802867     IErMin= 3 ErrMin= 6.59D-03
 ErrMax= 6.59D-03  0.00D+00 EMaxC= 1.00D-01 BMatC= 1.07D-02 BMatP= 1.23D-01
 IDIUse=3 WtCom= 9.34D-01 WtEn= 6.59D-02
 Coeff-Com: -0.216D-01 0.193D+00 0.828D+00
 Coeff-En:   0.000D+00 0.000D+00 0.100D+01
 Coeff:     -0.202D-01 0.181D+00 0.840D+00
 Gap=     0.298 Goal=   None    Shift=    0.000
 RMSDP=1.61D-04 MaxDP=6.71D-03 DE=-8.39D-02 OVMax= 1.66D-02

 Cycle   4  Pass 1  IDiag  1:
 RMSU=  1.45D-04    CP:  9.50D-01  7.73D-01  9.95D-01
 E= -305.427221176072     Delta-E=       -0.006871373205 Rises=F Damp=F
 DIIS: error= 1.21D-03 at cycle   4 NSaved=   4.
 NSaved= 4 IEnMin= 4 EnMin= -305.427221176072     IErMin= 4 ErrMin= 1.21D-03
 ErrMax= 1.21D-03  0.00D+00 EMaxC= 1.00D-01 BMatC= 3.89D-04 BMatP= 1.07D-02
 IDIUse=3 WtCom= 9.88D-01 WtEn= 1.21D-02
 Coeff-Com: -0.101D-01 0.328D-01 0.233D+00 0.744D+00
 Coeff-En:   0.000D+00 0.000D+00 0.000D+00 0.100D+01
 Coeff:     -0.994D-02 0.324D-01 0.231D+00 0.747D+00
 Gap=     0.298 Goal=   None    Shift=    0.000
 RMSDP=5.01D-05 MaxDP=3.02D-03 DE=-6.87D-03 OVMax= 4.21D-03

 Cycle   5  Pass 1  IDiag  1:
 RMSU=  4.16D-05    CP:  9.50D-01  7.66D-01  1.02D+00  1.07D+00
 E= -305.427579734998     Delta-E=       -0.000358558926 Rises=F Damp=F
 DIIS: error= 3.02D-04 at cycle   5 NSaved=   5.
 NSaved= 5 IEnMin= 5 EnMin= -305.427579734998     IErMin= 5 ErrMin= 3.02D-04
 ErrMax= 3.02D-04  0.00D+00 EMaxC= 1.00D-01 BMatC= 2.92D-05 BMatP= 3.89D-04
 IDIUse=3 WtCom= 9.97D-01 WtEn= 3.02D-03
 Coeff-Com:  0.250D-02-0.213D-01-0.103D+00 0.999D-02 0.111D+01
 Coeff-En:   0.000D+00 0.000D+00 0.000D+00 0.000D+00 0.100D+01
 Coeff:      0.249D-02-0.212D-01-0.103D+00 0.996D-02 0.111D+01
 Gap=     0.297 Goal=   None    Shift=    0.000
 RMSDP=3.87D-05 MaxDP=2.82D-03 DE=-3.59D-04 OVMax= 2.32D-03

 Cycle   6  Pass 1  IDiag  1:
 RMSU=  1.36D-05    CP:  9.50D-01  7.58D-01  1.04D+00  1.23D+00  1.31D+00
 E= -305.427627074771     Delta-E=       -0.000047339773 Rises=F Damp=F
 DIIS: error= 6.60D-05 at cycle   6 NSaved=   6.
 NSaved= 6 IEnMin= 6 EnMin= -305.427627074771     IErMin= 6 ErrMin= 6.60D-05
 ErrMax= 6.60D-05  0.00D+00 EMaxC= 1.00D-01 BMatC= 1.17D-06 BMatP= 2.92D-05
 IDIUse=1 WtCom= 1.00D+00 WtEn= 0.00D+00
 Coeff-Com:  0.835D-03-0.451D-02-0.235D-01-0.385D-01 0.821D-01 0.984D+00
 Coeff:      0.835D-03-0.451D-02-0.235D-01-0.385D-01 0.821D-01 0.984D+00
 Gap=     0.297 Goal=   None    Shift=    0.000
 RMSDP=8.31D-06 MaxDP=5.63D-04 DE=-4.73D-05 OVMax= 6.15D-04

 Cycle   7  Pass 1  IDiag  1:
 RMSU=  2.89D-06    CP:  9.50D-01  7.56D-01  1.04D+00  1.26D+00  1.39D+00
                    CP:  1.17D+00
 E= -305.427629325743     Delta-E=       -0.000002250972 Rises=F Damp=F
 DIIS: error= 1.55D-05 at cycle   7 NSaved=   7.
 NSaved= 7 IEnMin= 7 EnMin= -305.427629325743     IErMin= 7 ErrMin= 1.55D-05
 ErrMax= 1.55D-05  0.00D+00 EMaxC= 1.00D-01 BMatC= 1.45D-07 BMatP= 1.17D-06
 IDIUse=1 WtCom= 1.00D+00 WtEn= 0.00D+00
 Coeff-Com:  0.514D-05 0.555D-03 0.276D-02-0.849D-02-0.680D-01 0.221D+00
 Coeff-Com:  0.853D+00
 Coeff:      0.514D-05 0.555D-03 0.276D-02-0.849D-02-0.680D-01 0.221D+00
 Coeff:      0.853D+00
 Gap=     0.297 Goal=   None    Shift=    0.000
 RMSDP=1.80D-06 MaxDP=1.15D-04 DE=-2.25D-06 OVMax= 1.86D-04

 Cycle   8  Pass 1  IDiag  1:
 RMSU=  8.66D-07    CP:  9.50D-01  7.56D-01  1.04D+00  1.26D+00  1.41D+00
                    CP:  1.23D+00  1.17D+00
 E= -305.427629514337     Delta-E=       -0.000000188594 Rises=F Damp=F
 DIIS: error= 5.22D-06 at cycle   8 NSaved=   8.
 NSaved= 8 IEnMin= 8 EnMin= -305.427629514337     IErMin= 8 ErrMin= 5.22D-06
 ErrMax= 5.22D-06  0.00D+00 EMaxC= 1.00D-01 BMatC= 1.75D-08 BMatP= 1.45D-07
 IDIUse=1 WtCom= 1.00D+00 WtEn= 0.00D+00
 Coeff-Com: -0.837D-04 0.618D-03 0.306D-02 0.205D-02-0.248D-01-0.465D-01
 Coeff-Com:  0.185D+00 0.880D+00
 Coeff:     -0.837D-04 0.618D-03 0.306D-02 0.205D-02-0.248D-01-0.465D-01
 Coeff:      0.185D+00 0.880D+00
 Gap=     0.297 Goal=   None    Shift=    0.000
 RMSDP=6.33D-07 MaxDP=3.89D-05 DE=-1.89D-07 OVMax= 7.28D-05

 Cycle   9  Pass 1  IDiag  1:
 RMSU=  3.49D-07    CP:  9.50D-01  7.56D-01  1.04D+00  1.26D+00  1.41D+00
                    CP:  1.25D+00  1.29D+00  1.23D+00
 E= -305.427629537404     Delta-E=       -0.000000023067 Rises=F Damp=F
 DIIS: error= 2.33D-06 at cycle   9 NSaved=   9.
 NSaved= 9 IEnMin= 9 EnMin= -305.427629537404     IErMin= 9 ErrMin= 2.33D-06
 ErrMax= 2.33D-06  0.00D+00 EMaxC= 1.00D-01 BMatC= 2.05D-09 BMatP= 1.75D-08
 IDIUse=1 WtCom= 1.00D+00 WtEn= 0.00D+00
 Coeff-Com: -0.250D-04 0.104D-03 0.446D-03 0.181D-02 0.251D-02-0.410D-01
 Coeff-Com: -0.720D-01 0.184D+00 0.924D+00
 Coeff:     -0.250D-04 0.104D-03 0.446D-03 0.181D-02 0.251D-02-0.410D-01
 Coeff:     -0.720D-01 0.184D+00 0.924D+00
 Gap=     0.297 Goal=   None    Shift=    0.000
 RMSDP=2.51D-07 MaxDP=1.27D-05 DE=-2.31D-08 OVMax= 3.03D-05

 Cycle  10  Pass 1  IDiag  1:
 RMSU=  1.09D-07    CP:  9.50D-01  7.56D-01  1.04D+00  1.26D+00  1.41D+00
                    CP:  1.26D+00  1.33D+00  1.38D+00  1.27D+00
 E= -305.427629541066     Delta-E=       -0.000000003662 Rises=F Damp=F
 DIIS: error= 5.08D-07 at cycle  10 NSaved=  10.
 NSaved=10 IEnMin=10 EnMin= -305.427629541066     IErMin=10 ErrMin= 5.08D-07
 ErrMax= 5.08D-07  0.00D+00 EMaxC= 1.00D-01 BMatC= 1.45D-10 BMatP= 2.05D-09
 IDIUse=1 WtCom= 1.00D+00 WtEn= 0.00D+00
 Coeff-Com:  0.803D-05-0.547D-04-0.290D-03-0.257D-03 0.176D-02 0.718D-02
 Coeff-Com: -0.766D-02-0.110D+00-0.535D-01 0.116D+01
 Coeff:      0.803D-05-0.547D-04-0.290D-03-0.257D-03 0.176D-02 0.718D-02
 Coeff:     -0.766D-02-0.110D+00-0.535D-01 0.116D+01
 Gap=     0.297 Goal=   None    Shift=    0.000
 RMSDP=9.31D-08 MaxDP=5.24D-06 DE=-3.66D-09 OVMax= 1.03D-05

 Cycle  11  Pass 1  IDiag  1:
 RMSU=  3.48D-08    CP:  9.50D-01  7.56D-01  1.04D+00  1.26D+00  1.41D+00
                    CP:  1.26D+00  1.34D+00  1.41D+00  1.45D+00  1.34D+00
 E= -305.427629541419     Delta-E=       -0.000000000353 Rises=F Damp=F
 DIIS: error= 1.83D-07 at cycle  11 NSaved=  11.
 NSaved=11 IEnMin=11 EnMin= -305.427629541419     IErMin=11 ErrMin= 1.83D-07
 ErrMax= 1.83D-07  0.00D+00 EMaxC= 1.00D-01 BMatC= 8.67D-12 BMatP= 1.45D-10
 IDIUse=1 WtCom= 1.00D+00 WtEn= 0.00D+00
 Coeff-Com:  0.355D-06 0.148D-05 0.182D-04-0.772D-04-0.493D-03 0.161D-02
 Coeff-Com:  0.771D-02-0.193D-02-0.503D-01-0.142D+00 0.119D+01
 Coeff:      0.355D-06 0.148D-05 0.182D-04-0.772D-04-0.493D-03 0.161D-02
 Coeff:      0.771D-02-0.193D-02-0.503D-01-0.142D+00 0.119D+01
 Gap=     0.297 Goal=   None    Shift=    0.000
 RMSDP=2.10D-08 MaxDP=9.49D-07 DE=-3.53D-10 OVMax= 2.83D-06

 Cycle  12  Pass 1  IDiag  1:
 RMSU=  9.90D-09    CP:  9.50D-01  7.56D-01  1.04D+00  1.26D+00  1.41D+00
                    CP:  1.26D+00  1.34D+00  1.41D+00  1.48D+00  1.42D+00
                    CP:  1.34D+00
 E= -305.427629541446     Delta-E=       -0.000000000026 Rises=F Damp=F
 DIIS: error= 7.45D-08 at cycle  12 NSaved=  12.
 NSaved=12 IEnMin=12 EnMin= -305.427629541446     IErMin=12 ErrMin= 7.45D-08
 ErrMax= 7.45D-08  0.00D+00 EMaxC= 1.00D-01 BMatC= 1.19D-12 BMatP= 8.67D-12
 IDIUse=1 WtCom= 1.00D+00 WtEn= 0.00D+00
 Coeff-Com: -0.540D-06 0.380D-05 0.187D-04 0.245D-04-0.611D-04-0.819D-03
 Coeff-Com:  0.315D-03 0.742D-02 0.121D-01-0.901D-01-0.714D-01 0.114D+01
 Coeff:     -0.540D-06 0.380D-05 0.187D-04 0.245D-04-0.611D-04-0.819D-03
 Coeff:      0.315D-03 0.742D-02 0.121D-01-0.901D-01-0.714D-01 0.114D+01
 Gap=     0.297 Goal=   None    Shift=    0.000
 RMSDP=6.64D-09 MaxDP=3.72D-07 DE=-2.64D-11 OVMax= 1.13D-06

 SCF Done:  E(RHF) =  -305.427629541     A.U. after   12 cycles
            NFock= 12  Conv=0.66D-08     -V/T= 2.0005
 KE= 3.052807106498D+02 PE=-1.186342302984D+03 EE= 3.463568342602D+02
 Leave Link  502 at Tue Sep 30 17:00:13 2025, MaxMem=  4294967296 cpu:            1273.3 elap:              80.1
 (Enter /software/sse/easybuild/prefix/software/Gaussian/16.C.01-avx2-nsc1/g16/l801.exe)
 ExpMin= 2.53D-02 ExpMax= 1.53D+04 ExpMxC= 5.22D+02 IAcc=3 IRadAn=         5 AccDes= 0.00D+00
 HarFok:  IExCor=  205 AccDes= 0.00D+00 IRadAn=         5 IDoV=-2 UseB2=F ITyADJ=14
 ICtDFT= 12500011 ScaDFX=  1.000000  1.000000  1.000000  1.000000
 Largest valence mixing into a core orbital is  2.11D-04
 Largest core mixing into a valence orbital is  3.54D-05
 Range of M.O.s used for correlation:     7   437
 NBasis=   437 NAE=    24 NBE=    24 NFC=     6 NFV=     0
 NROrb=    431 NOA=    18 NOB=    18 NVA=   413 NVB=   413

 **** Warning!!: The largest alpha MO coefficient is  0.63774130D+02

 Leave Link  801 at Tue Sep 30 17:00:13 2025, MaxMem=  4294967296 cpu:               1.1 elap:               0.1
 (Enter /software/sse/easybuild/prefix/software/Gaussian/16.C.01-avx2-nsc1/g16/l906.exe)
 Frozen-core derivative calculation, NFC=   6 NFV=   0.
 FulOut=F Deriv=T AODrv=T NAtomX=    13
   MMem=           3  MDisk=          18 MDiskD=          18
  W3Min=     5296440 MinDsk=     8350685 NBas6D=         505
 NBas2D=      128920    NTT=      127765    LW2=     3500000
    MDV=  4292871073 MDiskM=       42483 NBas2p=      125768
 Disk-based method using ON**2 memory for 18 occupieds at a time.
 Estimated scratch disk usage=  4312832824 words.
 IMap=   1   2   3   4   5   6   7   8   9  10  11  12  13  14  15  16  17  18  19  20
 IMap=  21  22  23  24
 Actual    scratch disk usage=  3953073976 words.
 JobTyp=1 Pass  1:  I=   7 to  24 NPSUse= 16 ParTrn=T ParDer=T DoDerP=T.
 (rs|ai) integrals will be sorted in core.
 Spin components of T(2) and E(2):
     alpha-alpha T2 =       0.4392669957D-01 E2=     -0.1451637254D+00
     alpha-beta  T2 =       0.2485128764D+00 E2=     -0.8917463842D+00
     beta-beta   T2 =       0.4392669957D-01 E2=     -0.1451637254D+00
 The integrals were generated   1 times.
 ANorm=    0.1156013095D+01
 E2 =    -0.1182073835D+01 EUMP2 =    -0.30660970337650D+03
 Leave Link  906 at Tue Sep 30 17:04:14 2025, MaxMem=  4294967296 cpu:            3829.2 elap:             240.7
 (Enter /software/sse/easybuild/prefix/software/Gaussian/16.C.01-avx2-nsc1/g16/l1002.exe)
 Minotr:  Closed shell wavefunction.
          Computing MP2/KS-MP2 derivatives.
          Using Z-Vector for PSCF gradient.
          Skipping F1 and S1 gradient terms here.
          IDoAtm=1111111111111
          Frozen-core window.
          Direct CPHF calculation.
          Differentiating once with respect to electric field.
                with respect to dipole field.
          Differentiating once with respect to nuclear coordinates.
          Requested convergence is 1.0D-10 RMS, and 1.0D-09 maximum.
          NewPWx=F KeepS1=T KeepF1=T KeepIn=T MapXYZ=F SortEE=F KeepMc=T.
 Two-electron integral symmetry used by symmetrizing perturbed Fock matrices.
          MDV=    4294967296 using IRadAn=       5.
          Solving linear equations separately, MaxMat=     384.
          There are     1 degrees of freedom in the 1st order CPHF.  IDoFFX=0 NUNeed=     1.
 FoFJK:  IHMeth= 1 ICntrl=       0 DoSepK=F KAlg= 0 I1Cent=           0 FoldK=F
 IRaf= 980000000 NMat=       1 IRICut=       1 DoRegI=T DoRafI=F ISym2E=-1 IDoP0=0 IntGTp=1.
 FoFCou: FMM=F IPFlag=           0 FMFlag=      100000 FMFlg1=           0
         NFxFlg=           0 DoJE=F BraDBF=F KetDBF=F FulRan=T
         wScrn=  0.000000 ICntrl=         0 IOpCl=  0 I1Cent=           0 NGrid=           0
         NMat0=    1 NMatS0=      1 NMatT0=    0 NMatD0=    1 NMtDS0=    0 NMtDT0=    0
 Petite list used in FoFCou.
 LinEq1:  Iter=  0 NonCon=     1 RMS=2.96D-03 Max=7.14D-02 NDo=     1
 AX will form     1 AO Fock derivatives at one time.
 LinEq1:  Iter=  1 NonCon=     1 RMS=7.71D-04 Max=9.70D-03 NDo=     1
 LinEq1:  Iter=  2 NonCon=     1 RMS=2.47D-04 Max=3.44D-03 NDo=     1
 LinEq1:  Iter=  3 NonCon=     1 RMS=8.49D-05 Max=1.05D-03 NDo=     1
 LinEq1:  Iter=  4 NonCon=     1 RMS=2.61D-05 Max=5.57D-04 NDo=     1
 LinEq1:  Iter=  5 NonCon=     1 RMS=4.77D-06 Max=8.01D-05 NDo=     1
 LinEq1:  Iter=  6 NonCon=     1 RMS=1.80D-06 Max=5.15D-05 NDo=     1
 LinEq1:  Iter=  7 NonCon=     1 RMS=6.94D-07 Max=1.42D-05 NDo=     1
 LinEq1:  Iter=  8 NonCon=     1 RMS=2.61D-07 Max=5.68D-06 NDo=     1
 LinEq1:  Iter=  9 NonCon=     1 RMS=7.32D-08 Max=9.03D-07 NDo=     1
 LinEq1:  Iter= 10 NonCon=     1 RMS=1.57D-08 Max=2.55D-07 NDo=     1
 LinEq1:  Iter= 11 NonCon=     1 RMS=4.05D-09 Max=7.31D-08 NDo=     1
 LinEq1:  Iter= 12 NonCon=     1 RMS=1.32D-09 Max=3.58D-08 NDo=     1
 LinEq1:  Iter= 13 NonCon=     1 RMS=4.26D-10 Max=9.04D-09 NDo=     1
 LinEq1:  Iter= 14 NonCon=     1 RMS=9.30D-11 Max=1.95D-09 NDo=     1
 LinEq1:  Iter= 15 NonCon=     0 RMS=2.05D-11 Max=2.44D-10 NDo=     1
 Linear equations converged to 1.000D-10 1.000D-09 after    15 iterations.
 End of Minotr F.D. properties file   721 does not exist.
 End of Minotr F.D. properties file   722 does not exist.
 End of Minotr F.D. properties file   788 does not exist.
 Leave Link 1002 at Tue Sep 30 17:06:15 2025, MaxMem=  4294967296 cpu:            1917.4 elap:             120.7
 (Enter /software/sse/easybuild/prefix/software/Gaussian/16.C.01-avx2-nsc1/g16/l601.exe)
 Copying SCF densities to generalized density rwf, IOpCl= 0 IROHF=0.
 SCF density gives NOpUse=  1 NOpAll=  1.

 **********************************************************************

            Population analysis using the MP2 Density.

 **********************************************************************

 Orbital symmetries:
 BldTbl:  Degeneracy threshold= 1.00D-02
       Occupied  (A) (A) (A) (A) (A) (A) (A) (A) (A) (A) (A) (A)
                 (A) (A) (A) (A) (A) (A) (A) (A) (A) (A) (A) (A)
       Virtual   (A) (A) (A) (A) (A) (A) (A) (A) (A) (A) (A) (A)
                 (A) (A) (A) (A) (A) (A) (A) (A) (A) (A) (A) (A)
                 (A) (A) (A) (A) (A) (A) (A) (A) (A) (A) (A) (A)
                 (A) (A) (A) (A) (A) (A) (A) (A) (A) (A) (A) (A)
                 (A) (A) (A) (A) (A) (A) (A) (A) (A) (A) (A) (A)
                 (A) (A) (A) (A) (A) (A) (A) (A) (A) (A) (A) (A)
                 (A) (A) (A) (A) (A) (A) (A) (A) (A) (A) (A) (A)
                 (A) (A) (A) (A) (A) (A) (A) (A) (A) (A) (A) (A)
                 (A) (A) (A) (A) (A) (A) (A) (A) (A) (A) (A) (A)
                 (A) (A) (A) (A) (A) (A) (A) (A) (A) (A) (A) (A)
                 (A) (A) (A) (A) (A) (A) (A) (A) (A) (A) (A) (A)
                 (A) (A) (A) (A) (A) (A) (A) (A) (A) (A) (A) (A)
                 (A) (A) (A) (A) (A) (A) (A) (A) (A) (A) (A) (A)
                 (A) (A) (A) (A) (A) (A) (A) (A) (A) (A) (A) (A)
                 (A) (A) (A) (A) (A) (A) (A) (A) (A) (A) (A) (A)
                 (A) (A) (A) (A) (A) (A) (A) (A) (A) (A) (A) (A)
                 (A) (A) (A) (A) (A) (A) (A) (A) (A) (A) (A) (A)
                 (A) (A) (A) (A) (A) (A) (A) (A) (A) (A) (A) (A)
                 (A) (A) (A) (A) (A) (A) (A) (A) (A) (A) (A) (A)
                 (A) (A) (A) (A) (A) (A) (A) (A) (A) (A) (A) (A)
                 (A) (A) (A) (A) (A) (A) (A) (A) (A) (A) (A) (A)
                 (A) (A) (A) (A) (A) (A) (A) (A) (A) (A) (A) (A)
                 (A) (A) (A) (A) (A) (A) (A) (A) (A) (A) (A) (A)
                 (A) (A) (A) (A) (A) (A) (A) (A) (A) (A) (A) (A)
                 (A) (A) (A) (A) (A) (A) (A) (A) (A) (A) (A) (A)
                 (A) (A) (A) (A) (A) (A) (A) (A) (A) (A) (A) (A)
                 (A) (A) (A) (A) (A) (A) (A) (A) (A) (A) (A) (A)
                 (A) (A) (A) (A) (A) (A) (A) (A) (A) (A) (A) (A)
                 (A) (A) (A) (A) (A) (A) (A) (A) (A) (A) (A) (A)
                 (A) (A) (A) (A) (A) (A) (A) (A) (A) (A) (A) (A)
                 (A) (A) (A) (A) (A) (A) (A) (A) (A) (A) (A) (A)
                 (A) (A) (A) (A) (A) (A) (A) (A) (A) (A) (A) (A)
                 (A) (A) (A) (A) (A) (A) (A) (A) (A) (A) (A) (A)
                 (A) (A) (A) (A) (A) (A) (A) (A) (A) (A) (A) (A)
                 (A) (A) (A) (A) (A)
 The electronic state is 1-A.
 Alpha  occ. eigenvalues --  -20.28602 -20.28145 -11.12223 -11.08961 -11.06844
 Alpha  occ. eigenvalues --  -11.04687  -1.17885  -1.07374  -0.91513  -0.79459
 Alpha  occ. eigenvalues --   -0.66959  -0.51895  -0.49130  -0.45409  -0.42731
 Alpha  occ. eigenvalues --   -0.41347  -0.39927  -0.36439  -0.34945  -0.32858
 Alpha  occ. eigenvalues --   -0.31239  -0.20556  -0.19196  -0.19073
 Alpha virt. eigenvalues --    0.10630   0.12209   0.12496   0.14353   0.14998
 Alpha virt. eigenvalues --    0.15311   0.15773   0.19140   0.19494   0.20764
 Alpha virt. eigenvalues --    0.21931   0.23043   0.23507   0.23957   0.24283
 Alpha virt. eigenvalues --    0.25261   0.26419   0.26682   0.27856   0.27904
 Alpha virt. eigenvalues --    0.31108   0.31610   0.33077   0.33353   0.35333
 Alpha virt. eigenvalues --    0.35529   0.35970   0.36039   0.38530   0.38884
 Alpha virt. eigenvalues --    0.40111   0.40971   0.42017   0.42210   0.42868
 Alpha virt. eigenvalues --    0.43852   0.45200   0.45899   0.46515   0.46687
 Alpha virt. eigenvalues --    0.47340   0.47906   0.48560   0.50171   0.50513
 Alpha virt. eigenvalues --    0.50580   0.50945   0.52419   0.52446   0.53000
 Alpha virt. eigenvalues --    0.53060   0.55704   0.55942   0.56975   0.56977
 Alpha virt. eigenvalues --    0.57989   0.58813   0.59151   0.60118   0.61174
 Alpha virt. eigenvalues --    0.61752   0.62672   0.62814   0.63906   0.64126
 Alpha virt. eigenvalues --    0.64510   0.66043   0.66109   0.69551   0.69818
 Alpha virt. eigenvalues --    0.70297   0.70343   0.71032   0.72315   0.74954
 Alpha virt. eigenvalues --    0.75042   0.75923   0.78015   0.79184   0.81625
 Alpha virt. eigenvalues --    0.82381   0.83706   0.86405   0.87613   0.88526
 Alpha virt. eigenvalues --    0.90839   0.91664   0.92877   0.92980   0.95600
 Alpha virt. eigenvalues --    0.95816   0.96613   0.97127   0.97722   0.98779
 Alpha virt. eigenvalues --    0.99758   0.99881   1.00388   1.02146   1.02937
 Alpha virt. eigenvalues --    1.02973   1.05660   1.05854   1.05972   1.07114
 Alpha virt. eigenvalues --    1.07209   1.07666   1.09607   1.09719   1.10415
 Alpha virt. eigenvalues --    1.12002   1.12668   1.13731   1.14539   1.15076
 Alpha virt. eigenvalues --    1.15780   1.18661   1.19466   1.19942   1.20774
 Alpha virt. eigenvalues --    1.22908   1.23867   1.23910   1.24720   1.26054
 Alpha virt. eigenvalues --    1.26595   1.27402   1.29591   1.29623   1.30919
 Alpha virt. eigenvalues --    1.31765   1.31891   1.33748   1.34419   1.35051
 Alpha virt. eigenvalues --    1.36263   1.36778   1.36879   1.38317   1.38950
 Alpha virt. eigenvalues --    1.40287   1.40318   1.41946   1.43749   1.45812
 Alpha virt. eigenvalues --    1.47458   1.47689   1.48749   1.50650   1.53216
 Alpha virt. eigenvalues --    1.55143   1.56995   1.58739   1.59076   1.60156
 Alpha virt. eigenvalues --    1.61272   1.63152   1.66068   1.67299   1.69665
 Alpha virt. eigenvalues --    1.69730   1.70862   1.72698   1.73795   1.74128
 Alpha virt. eigenvalues --    1.74740   1.76615   1.76685   1.78900   1.79962
 Alpha virt. eigenvalues --    1.80236   1.81934   1.82167   1.83894   1.84921
 Alpha virt. eigenvalues --    1.85772   1.87230   1.89450   1.90055   1.90374
 Alpha virt. eigenvalues --    1.91374   1.93659   1.93807   1.95559   1.97893
 Alpha virt. eigenvalues --    1.98167   1.99967   2.00837   2.02824   2.03451
 Alpha virt. eigenvalues --    2.05300   2.07328   2.08404   2.09436   2.12499
 Alpha virt. eigenvalues --    2.12620   2.12823   2.14524   2.15936   2.17048
 Alpha virt. eigenvalues --    2.20020   2.21226   2.25367   2.26578   2.28538
 Alpha virt. eigenvalues --    2.28912   2.34288   2.35483   2.36897   2.39515
 Alpha virt. eigenvalues --    2.39644   2.41031   2.42520   2.45261   2.45275
 Alpha virt. eigenvalues --    2.48004   2.50653   2.51158   2.53205   2.54556
 Alpha virt. eigenvalues --    2.59090   2.59478   2.59484   2.64528   2.65468
 Alpha virt. eigenvalues --    2.66413   2.68409   2.70772   2.72258   2.74458
 Alpha virt. eigenvalues --    2.77782   2.80489   2.82470   2.86705   2.88093
 Alpha virt. eigenvalues --    2.88723   2.90695   2.93500   2.95568   2.99629
 Alpha virt. eigenvalues --    3.03018   3.08112   3.08989   3.10408   3.17629
 Alpha virt. eigenvalues --    3.18027   3.25122   3.26606   3.31323   3.33415
 Alpha virt. eigenvalues --    3.33737   3.36900   3.43500   3.48654   3.51307
 Alpha virt. eigenvalues --    3.52638   3.54619   3.55922   3.61331   3.62857
 Alpha virt. eigenvalues --    3.65798   3.66748   3.70643   3.72457   3.73287
 Alpha virt. eigenvalues --    3.74241   3.76940   3.78450   3.80202   3.83985
 Alpha virt. eigenvalues --    3.84777   3.87704   3.88482   3.90137   3.92349
 Alpha virt. eigenvalues --    3.93741   3.94266   3.97122   3.98764   3.99703
 Alpha virt. eigenvalues --    4.03088   4.03688   4.04191   4.05050   4.07308
 Alpha virt. eigenvalues --    4.09617   4.10682   4.12490   4.14394   4.14959
 Alpha virt. eigenvalues --    4.17583   4.19061   4.20890   4.22692   4.25776
 Alpha virt. eigenvalues --    4.31970   4.31979   4.32230   4.35112   4.36615
 Alpha virt. eigenvalues --    4.37693   4.40312   4.40700   4.42704   4.45358
 Alpha virt. eigenvalues --    4.46495   4.47256   4.51502   4.53444   4.55107
 Alpha virt. eigenvalues --    4.55594   4.63340   4.67776   4.69207   4.71557
 Alpha virt. eigenvalues --    4.71953   4.73643   4.79051   4.82533   4.83129
 Alpha virt. eigenvalues --    4.84274   4.87744   4.88564   4.92803   4.93155
 Alpha virt. eigenvalues --    4.97431   4.98185   5.00843   5.02584   5.04932
 Alpha virt. eigenvalues --    5.05469   5.08286   5.13240   5.14516   5.18753
 Alpha virt. eigenvalues --    5.23905   5.24955   5.26342   5.28837   5.28956
 Alpha virt. eigenvalues --    5.31472   5.34049   5.36582   5.36780   5.42453
 Alpha virt. eigenvalues --    5.45660   5.46814   5.49994   5.52350   5.56163
 Alpha virt. eigenvalues --    5.56249   5.58472   5.58840   5.66567   5.67309
 Alpha virt. eigenvalues --    5.74643   5.75596   5.77864   5.80080   5.81638
 Alpha virt. eigenvalues --    5.85014   5.88002   5.93000   5.94661   6.00347
 Alpha virt. eigenvalues --    6.08864   6.15110   6.16369   6.26676   6.28831
 Alpha virt. eigenvalues --    6.30188   6.33866   6.36357   6.42536   6.42970
 Alpha virt. eigenvalues --    6.47894   6.59666   6.66211   6.69124   6.88847
 Alpha virt. eigenvalues --    6.91703   6.93227   6.95160   6.95883   6.99751
 Alpha virt. eigenvalues --    7.03882   7.09133   7.18292   7.18942   7.21294
 Alpha virt. eigenvalues --    7.29867   7.34574   7.44312   7.50361   7.55615
 Alpha virt. eigenvalues --    7.62389   7.63856   7.66983   7.73969   7.87027
 Alpha virt. eigenvalues --    7.91062   7.95604   7.98750   8.10205   8.18133
 Alpha virt. eigenvalues --    8.21854   8.30872  15.07150  16.19925  17.52156
 Alpha virt. eigenvalues --   18.09198  18.88795  19.89193
          Condensed to atoms (all electrons):
               1          2          3          4          5          6
     1  C    7.702435  -0.439563  -0.095366  -0.132060  -0.785116  -0.028399
     2  C   -0.439563   5.935524   0.201931   0.216155   0.026106  -0.048574
     3  O   -0.095366   0.201931   8.824307  -0.184784  -0.004881  -0.004865
     4  O   -0.132060   0.216155  -0.184784   8.833125  -0.007565   0.029428
     5  C   -0.785116   0.026106  -0.004881  -0.007565   7.732606   0.015167
     6  H   -0.028399  -0.048574  -0.004865   0.029428   0.015167   0.820125
     7  H   -0.028414  -0.048569  -0.004874   0.029431   0.015153  -0.001001
     8  H   -0.001122   0.000639   0.012071   0.002130   0.060678  -0.028438
     9  H   -0.001138   0.000641   0.012087   0.002131   0.060693   0.030905
    10  C   -0.035293  -0.052845  -0.021328  -0.008983  -0.776006  -0.003261
    11  H    0.031860   0.007015  -0.001233  -0.001051   0.017758  -0.019354
    12  H   -0.002921  -0.002765  -0.000264   0.000090   0.000614   0.003918
    13  H    0.031863   0.007015  -0.001233  -0.001051   0.017753  -0.016633
               7          8          9         10         11         12
     1  C   -0.028414  -0.001122  -0.001138  -0.035293   0.031860  -0.002921
     2  C   -0.048569   0.000639   0.000641  -0.052845   0.007015  -0.002765
     3  O   -0.004874   0.012071   0.012087  -0.021328  -0.001233  -0.000264
     4  O    0.029431   0.002130   0.002131  -0.008983  -0.001051   0.000090
     5  C    0.015153   0.060678   0.060693  -0.776006   0.017758   0.000614
     6  H   -0.001001  -0.028438   0.030905  -0.003261  -0.019354   0.003918
     7  H    0.820152   0.030906  -0.028449  -0.003252  -0.016633   0.003919
     8  H    0.030906   0.767130  -0.069907  -0.040294  -0.006451  -0.015450
     9  H   -0.028449  -0.069907   0.767133  -0.040300   0.016943  -0.015450
    10  C   -0.003252  -0.040294  -0.040300   7.538180   0.097234   0.232929
    11  H   -0.016633  -0.006451   0.016943   0.097234   0.590314  -0.035200
    12  H    0.003919  -0.015450  -0.015450   0.232929  -0.035200   0.592248
    13  H   -0.019353   0.016945  -0.006450   0.097237   0.035201  -0.035200
              13
     1  C    0.031863
     2  C    0.007015
     3  O   -0.001233
     4  O   -0.001051
     5  C    0.017753
     6  H   -0.016633
     7  H   -0.019353
     8  H    0.016945
     9  H   -0.006450
    10  C    0.097237
    11  H    0.035201
    12  H   -0.035200
    13  H    0.590309
 Mulliken charges:
               1
     1  C   -0.216767
     2  C    0.197290
     3  O   -0.731567
     4  O   -0.776997
     5  C   -0.372959
     6  H    0.250982
     7  H    0.250987
     8  H    0.271164
     9  H    0.271161
    10  C   -0.984020
    11  H    0.283597
    12  H    0.273532
    13  H    0.283598
 Sum of Mulliken charges =  -1.00000
 Mulliken charges with hydrogens summed into heavy atoms:
               1
     1  C    0.285202
     2  C    0.197290
     3  O   -0.731567
     4  O   -0.776997
     5  C    0.169365
    10  C   -0.143293
 DipInt: DoE/N= T F RetVal/Mat= T F Init=T NMatP=  1 IDeriv=0 Min/MaxMlt=  0  4
 Entering OneElI...
 OneElI was handed  4294318234 working-precision words.
 Multipole integrals L=0 to 4 MinM= 0 MaxM= 0.
 Requested accuracy = 0.1000D-12
 ShPair: Thresh= 1.00D-13 NBox=     0 BxSize= 0.00D+00 RnKept= 1.10D+01
         NSMCal=                10878 NSMKep=               10670
 PrmmSu-InSpLW:  IPartL=    0 NPrtUS=    1 NPrtUL=    1 DoSpLW=F IThBeg=    0 IThEnd=    0 NThAct=    1.
 PrSmSu:  IncTry=   512 NBBP=          10670 NTPThr=   100 NPartT=    1 Incr=         106 LDynOK=F GPUOK=F.
 PrsmSu:  NPrtUS=   1 ThrOK=F IAlg=2 LenDen=           0 ISkipM=0 DoSpLW=F IThBeg=    0 IThEnd=    0.
 Prism:   IPart=     0 DynPar=F LinDyn=F Incr=         106.
 PRISM was handed  4293584269 working-precision words and 10670 shell-pairs
 IPart=  0 NShTot=       10670 NBatch=         105 AvBLen=       101.6
 PrsmSu-ThDecC:  IPartSL=    0    0 NPrtUSL=    1    1 IThBeg=    0 IThEnd=    0 CPU=   -1 GPU=   -1 NThAct=    1.
 PrSmSu:  NxtVal=            107.
 Electronic moments (au):
        -48.00000000          3.03017222         -0.31640911          0.00000745
       -572.09623852       -137.76887675        -45.42892240         -0.09326802
          0.00005464         -0.00014142       -619.43932482        -55.10411566
         -0.00149457        142.30778447        145.56799546          0.00635235
        -46.01323346          9.89371991         -0.00052750          0.00906143
     -12982.97236696       -960.81363604       -218.37296968       -238.72909665
         -0.03308503        149.43509932         -0.01282782         -0.00398625
          0.01191130      -1435.17219143       -572.05358350       -177.34629342
         -0.01439286          0.00725604         24.05272016
 Electronic spatial extent (au):  <R**2>=            755.2940
 DipInt: DoE/N= F T RetVal/Mat= T F Init=T NMatP=  1 IDeriv=0 Min/MaxMlt=  0  4
 Nuclear    moments (au):
         47.00000000         -0.00000000         -0.00000000          0.00000000
        524.34960942        101.13144731         16.16567961          0.00000000
         -0.00016056          0.00001253        651.51938975         52.50682622
          0.00163590       -125.91608258       -134.63055200         -0.00580251
         43.18602285         -9.82636960          0.00029419         -0.00839836
      10423.12176426        407.02856428         43.56036177        213.91927271
          0.02955541       -134.22051921          0.01407613          0.00464782
         -0.01255512        921.82637733        181.27923566         64.68865863
          0.01248397         -0.00779514        -25.87183252
 Total      moments (au):
         -1.00000000          3.03017222         -0.31640911          0.00000745
        -47.74662910        -36.63742944        -29.26324279         -0.09326802
         -0.00010592         -0.00012889         32.08006492         -2.59728944
          0.00014133         16.39170190         10.93744347          0.00054984
         -2.82721061          0.06735031         -0.00023330          0.00066306
      -2559.85060270       -553.78507177       -174.81260791        -24.80982394
         -0.00352962         15.21458011          0.00124831          0.00066157
         -0.00064382       -513.34581410       -390.77434784       -112.65763479
         -0.00190889         -0.00053910         -1.81911236
 Traceless Quadrup. (au):
         -9.86419532          1.24500434          8.61919098         -0.09326802
         -0.00010592         -0.00012889
 Charge=             -1.0000 electrons
 Dipole moment (field-independent basis, Debye):
    X=              7.7019    Y=             -0.8042    Z=              0.0000  Tot=              7.7438
 Quadrupole moment (field-independent basis, Debye-Ang):
   XX=            -64.2209   YY=            -49.2786   ZZ=            -39.3601
   XY=             -0.1254   XZ=             -0.0001   YZ=             -0.0002
 Traceless Quadrupole moment (field-independent basis, Debye-Ang):
   XX=            -13.2677   YY=              1.6746   ZZ=             11.5931
   XY=             -0.1254   XZ=             -0.0001   YZ=             -0.0002
 Octapole moment (field-independent basis, Debye-Ang**2):
  XXX=             22.8334  YYY=             -1.8487  ZZZ=              0.0001  XYY=             11.6670
  XXY=              7.7849  XXZ=              0.0004  XZZ=             -2.0123  YZZ=              0.0479
  YYZ=             -0.0002  XYZ=              0.0005
 Hexadecapole moment (field-independent basis, Debye-Ang**3):
 XXXX=           -964.1625 YYYY=           -208.5820 ZZZZ=            -65.8428 XXXY=             -9.3446
 XXXZ=             -0.0013 YYYX=              5.7305 YYYZ=              0.0005 ZZZX=              0.0002
 ZZZY=             -0.0002 XXYY=           -193.3506 XXZZ=           -147.1844 YYZZ=            -42.4323
 XXYZ=             -0.0007 YYXZ=             -0.0002 ZZXY=             -0.6852
 N-N= 2.292771285328D+02 E-N=-1.186811399793D+03  KE= 3.066049174100D+02
 SetAtRh:  ITypeU=  23 NETotI=      -1 ICharg=  0 NETot=      47.
 StAtR1:  I=    1 I1=    1 IA=  6 C=   6.0 OKShel=TTT
                                                  SSP
                                                  222
 StAtR1:  I=    2 I1=    2 IA=  6 C=   6.0 OKShel=TTT
                                                  SSP
                                                  222
 StAtR1:  I=    3 I1=    3 IA=  8 C=   8.0 OKShel=TTT
                                                  SSP
                                                  224
 StAtR1:  I=    4 I1=    4 IA=  8 C=   8.0 OKShel=TTT
                                                  SSP
                                                  224
 StAtR1:  I=    5 I1=    5 IA=  6 C=   6.0 OKShel=TTT
                                                  SSP
                                                  222
 StAtR1:  I=    6 I1=    6 IA=  1 C=   1.0 OKShel=T
                                                  S
                                                  1
 StAtR1:  I=    7 I1=    7 IA=  1 C=   1.0 OKShel=T
                                                  S
                                                  1
 StAtR1:  I=    8 I1=    8 IA=  1 C=   1.0 OKShel=T
                                                  S
                                                  1
 StAtR1:  I=    9 I1=    9 IA=  1 C=   1.0 OKShel=T
                                                  S
                                                  1
 StAtR1:  I=   10 I1=   10 IA=  6 C=   6.0 OKShel=TTT
                                                  SSP
                                                  222
 StAtR1:  I=   11 I1=   11 IA=  1 C=   1.0 OKShel=T
                                                  S
                                                  1
 StAtR1:  I=   12 I1=   12 IA=  1 C=   1.0 OKShel=T
                                                  S
                                                  1
 StAtR1:  I=   13 I1=   13 IA=  1 C=   1.0 OKShel=T
                                                  S
                                                  1
          I=    1 IA=  6 I1=    1 NAtG=23 NE=   6.000 C=   6.000 Err= 1.75D-11
          I=    2 IA=  6 I1=    2 NAtG=23 NE=   6.000 C=   6.000 Err= 1.75D-11
          I=    3 IA=  8 I1=    3 NAtG=23 NE=   8.000 C=   8.000 Err=-3.68D-11
          I=    4 IA=  8 I1=    4 NAtG=23 NE=   8.000 C=   8.000 Err=-3.68D-11
          I=    5 IA=  6 I1=    5 NAtG=23 NE=   6.000 C=   6.000 Err= 1.75D-11
          I=    6 IA=  1 I1=    6 NAtG=20 NE=   1.000 C=   1.000 Err= 2.80D-12
          I=    7 IA=  1 I1=    7 NAtG=20 NE=   1.000 C=   1.000 Err= 2.80D-12
          I=    8 IA=  1 I1=    8 NAtG=20 NE=   1.000 C=   1.000 Err= 2.80D-12
          I=    9 IA=  1 I1=    9 NAtG=20 NE=   1.000 C=   1.000 Err= 2.80D-12
          I=   10 IA=  6 I1=   10 NAtG=23 NE=   6.000 C=   6.000 Err= 1.75D-11
          I=   11 IA=  1 I1=   11 NAtG=20 NE=   1.000 C=   1.000 Err= 2.80D-12
          I=   12 IA=  1 I1=   12 NAtG=20 NE=   1.000 C=   1.000 Err= 2.80D-12
          I=   13 IA=  1 I1=   13 NAtG=20 NE=   1.000 C=   1.000 Err= 2.80D-12
 Pruned (  99, 590) grid will be used in numerical quadrature.
 IPart=  0 IRanGd=          0 ScrnBf=T ScrnGd=T RCrit=4.00D+00 DoMicB=T.
 CutRad = 1000.00    CtRdIn =    0.00    XCrit =  15.00   ICut = 0
 Pruned (  99, 590) grid will be used in numerical quadrature.
 IPart=  1 IRanGd=          0 ScrnBf=T ScrnGd=T RCrit=4.00D+00 DoMicB=T.
 CutRad = 1000.00    CtRdIn =    0.00    XCrit =  15.00   ICut = 0
 Pruned (  99, 590) grid will be used in numerical quadrature.
 Pruned (  99, 590) grid will be used in numerical quadrature.
 IPart=  8 IRanGd=          0 ScrnBf=T ScrnGd=T RCrit=4.00D+00 DoMicB=T.
 CutRad = 1000.00    CtRdIn =    0.00    XCrit =  15.00   ICut = 0
 IPart= 15 IRanGd=          0 ScrnBf=T ScrnGd=T RCrit=4.00D+00 DoMicB=T.
 CutRad = 1000.00    CtRdIn =    0.00    XCrit =  15.00   ICut = 0
 Pruned (  99, 590) grid will be used in numerical quadrature.
 Pruned (  99, 590) grid will be used in numerical quadrature.
 IPart=  7 IRanGd=          0 ScrnBf=T ScrnGd=T RCrit=4.00D+00 DoMicB=T.
 CutRad = 1000.00    CtRdIn =    0.00    XCrit =  15.00   ICut = 0
 Pruned (  99, 590) grid will be used in numerical quadrature.
 Pruned (  99, 590) grid will be used in numerical quadrature.
 IPart= 13 IRanGd=          0 ScrnBf=T ScrnGd=T RCrit=4.00D+00 DoMicB=T.
 CutRad = 1000.00    CtRdIn =    0.00    XCrit =  15.00   ICut = 0
 IPart= 11 IRanGd=          0 ScrnBf=T ScrnGd=T RCrit=4.00D+00 DoMicB=T.
 Pruned (  99, 590) grid will be used in numerical quadrature.
 IPart=  4 IRanGd=          0 ScrnBf=T ScrnGd=T RCrit=4.00D+00 DoMicB=T.
 CutRad = 1000.00    CtRdIn =    0.00    XCrit =  15.00   ICut = 0
 IPart=  3 IRanGd=          0 ScrnBf=T ScrnGd=T RCrit=4.00D+00 DoMicB=T.
 Pruned (  99, 590) grid will be used in numerical quadrature.
 CutRad = 1000.00    CtRdIn =    0.00    XCrit =  15.00   ICut = 0
 Pruned (  99, 590) grid will be used in numerical quadrature.
 IPart=  6 IRanGd=          0 ScrnBf=T ScrnGd=T RCrit=4.00D+00 DoMicB=T.
 CutRad = 1000.00    CtRdIn =    0.00    XCrit =  15.00   ICut = 0
 IPart= 12 IRanGd=          0 ScrnBf=T ScrnGd=T RCrit=4.00D+00 DoMicB=T.
 CutRad = 1000.00    CtRdIn =    0.00    XCrit =  15.00   ICut = 0
 Pruned (  99, 590) grid will be used in numerical quadrature.
 Pruned (  99, 590) grid will be used in numerical quadrature.
 IPart=  9 IRanGd=          0 ScrnBf=T ScrnGd=T RCrit=4.00D+00 DoMicB=T.
 CutRad = 1000.00    CtRdIn =    0.00    XCrit =  15.00   ICut = 0
 Pruned (  99, 590) grid will be used in numerical quadrature.
 Pruned (  99, 590) grid will be used in numerical quadrature.
 IPart=  2 IRanGd=          0 ScrnBf=T ScrnGd=T RCrit=4.00D+00 DoMicB=T.
 CutRad = 1000.00    CtRdIn =    0.00    XCrit =  15.00   ICut = 0
 IPart= 10 IRanGd=          0 ScrnBf=T ScrnGd=T RCrit=4.00D+00 DoMicB=T.
 CutRad = 1000.00    CtRdIn =    0.00    XCrit =  15.00   ICut = 0
 IPart=  5 IRanGd=          0 ScrnBf=T ScrnGd=T RCrit=4.00D+00 DoMicB=T.
 CutRad = 1000.00    CtRdIn =    0.00    XCrit =  15.00   ICut = 0
 Pruned (  99, 590) grid will be used in numerical quadrature.
 CutRad = 1000.00    CtRdIn =    0.00    XCrit =  15.00   ICut = 0
 IPart= 14 IRanGd=          0 ScrnBf=T ScrnGd=T RCrit=4.00D+00 DoMicB=T.
 CutRad = 1000.00    CtRdIn =    0.00    XCrit =  15.00   ICut = 0
 Pruned (  99, 590) grid will be used in numerical quadrature.
 IPart=  0 Atom number   1 atomic number  6 has       23114 grid points.
 IPart=  0 Atom   1 batch    1 overlaps   13 atoms,   142 shells and    13 DB shells.   NGrid=      2408
 Symmetry reduced    86 angular points to    86 for atom    1.
 Pruned (  99, 590) grid will be used in numerical quadrature.
 IPart=  1 Atom number   1 atomic number  6 has       23114 grid points.
 IPart=  1 Atom   1 batch    2 overlaps   13 atoms,   142 shells and    13 DB shells.   NGrid=      2522
 Pruned (  99, 590) grid will be used in numerical quadrature.
 Pruned (  99, 590) grid will be used in numerical quadrature.
 IPart= 15 Atom number   1 atomic number  6 has       23114 grid points.
 IPart=  8 Atom number   1 atomic number  6 has       23114 grid points.
 IPart= 15 Atom   1 batch    3 overlaps   13 atoms,   143 shells and    13 DB shells.   NGrid=      2114
 Symmetry reduced   194 angular points to   194 for atom    1.
 IPart=  8 Atom   1 batch    4 overlaps   13 atoms,   144 shells and    13 DB shells.   NGrid=      1180
 Symmetry reduced   302 angular points to   302 for atom    1.
 Symmetry reduced   590 angular points to   590 for atom    1.
 Pruned (  99, 590) grid will be used in numerical quadrature.
 Pruned (  99, 590) grid will be used in numerical quadrature.
 IPart=  7 Atom number   1 atomic number  6 has       23114 grid points.
 IPart= 13 Atom number   1 atomic number  6 has       23114 grid points.
 Pruned (  99, 590) grid will be used in numerical quadrature.
 IPart= 13 Atom   1 batch    6 overlaps   13 atoms,   145 shells and    13 DB shells.   NGrid=      1180
 IPart=  4 Atom number   1 atomic number  6 has       23114 grid points.
 IPart=  7 Atom   1 batch    5 overlaps   13 atoms,   145 shells and    13 DB shells.   NGrid=      1180
 Pruned (  99, 590) grid will be used in numerical quadrature.
 Symmetry reduced   590 angular points to   590 for atom    1.
 IPart=  4 Atom   1 batch    7 overlaps   13 atoms,   147 shells and    13 DB shells.   NGrid=      1180
 Symmetry reduced   590 angular points to   590 for atom    1.
 Symmetry reduced   590 angular points to   590 for atom    1.
 IPart= 11 Atom number   1 atomic number  6 has       23114 grid points.
 Pruned (  99, 590) grid will be used in numerical quadrature.
 IPart= 11 Atom   1 batch    8 overlaps   13 atoms,   147 shells and    13 DB shells.   NGrid=      1180
 IPart= 12 Atom number   1 atomic number  6 has       23114 grid points.
 Pruned (  99, 590) grid will be used in numerical quadrature.
 IPart= 12 Atom   1 batch   10 overlaps   13 atoms,   147 shells and    13 DB shells.   NGrid=      1180
 Pruned (  99, 590) grid will be used in numerical quadrature.
 IPart=  6 Atom number   1 atomic number  6 has       23114 grid points.
 IPart=  3 Atom number   1 atomic number  6 has       23114 grid points.
 Symmetry reduced   590 angular points to   590 for atom    1.
 IPart=  3 Atom   1 batch   11 overlaps   13 atoms,   146 shells and    13 DB shells.   NGrid=      1180
 IPart=  6 Atom   1 batch    9 overlaps   13 atoms,   147 shells and    13 DB shells.   NGrid=      1180
 Symmetry reduced   590 angular points to   590 for atom    1.
 Pruned (  99, 590) grid will be used in numerical quadrature.
 Symmetry reduced   590 angular points to   590 for atom    1.
 IPart= 10 Atom number   1 atomic number  6 has       23114 grid points.
 Symmetry reduced   590 angular points to   590 for atom    1.
 IPart= 10 Atom   1 batch   13 overlaps   13 atoms,   146 shells and    13 DB shells.   NGrid=       604
 Pruned (  99, 590) grid will be used in numerical quadrature.
 Symmetry reduced   302 angular points to   302 for atom    1.
 IPart=  2 Atom number   1 atomic number  6 has       23114 grid points.
 Pruned (  99, 590) grid will be used in numerical quadrature.
 IPart=  2 Atom   1 batch   12 overlaps   13 atoms,   146 shells and    13 DB shells.   NGrid=       590
 IPart=  9 Atom number   1 atomic number  6 has       23114 grid points.
 Symmetry reduced   590 angular points to   590 for atom    1.
 Pruned (  99, 590) grid will be used in numerical quadrature.
 IPart=  9 Atom   1 batch   14 overlaps   13 atoms,   146 shells and    13 DB shells.   NGrid=       604
 IPart= 14 Atom number   1 atomic number  6 has       23114 grid points.
 Symmetry reduced   302 angular points to   302 for atom    1.
 IPart= 14 Atom   1 batch   15 overlaps   13 atoms,   141 shells and    13 DB shells.   NGrid=       604
 Symmetry reduced   302 angular points to   302 for atom    1.
 Pruned (  99, 590) grid will be used in numerical quadrature.
 IPart=  5 Atom number   1 atomic number  6 has       23114 grid points.
 IPart=  5 Atom   1 batch   16 overlaps   13 atoms,   134 shells and    13 DB shells.   NGrid=       604
 Symmetry reduced   302 angular points to   302 for atom    1.
 IPart=  5 Atom   1 batch   17 overlaps   13 atoms,   115 shells and    13 DB shells.   NGrid=       604
 IPart= 14 Atom   1 batch   18 overlaps   13 atoms,    90 shells and    13 DB shells.   NGrid=       604
 IPart=  5 Atom   1 batch   19 overlaps   13 atoms,    66 shells and    13 DB shells.   NGrid=       604
 IPart= 14 Atom   1 batch   20 overlaps   13 atoms,    41 shells and     8 DB shells.   NGrid=       604
 IPart=  9 Atom   1 batch   21 overlaps   13 atoms,    20 shells and     0 DB shells.   NGrid=       604
 IPart=  5 Atom   1 batch   22 overlaps   13 atoms,     9 shells and     0 DB shells.   NGrid=       604
 Pruned (  99, 590) grid will be used in numerical quadrature.
 IPart=  9 Atom number   2 atomic number  6 has       23416 grid points.
 IPart=  9 Atom   2 batch    1 overlaps   13 atoms,   133 shells and    13 DB shells.   NGrid=      2408
 Pruned (  99, 590) grid will be used in numerical quadrature.
 Symmetry reduced    86 angular points to    86 for atom    2.
 IPart= 14 Atom number   2 atomic number  6 has       23416 grid points.
 IPart= 14 Atom   2 batch    2 overlaps   13 atoms,   133 shells and    13 DB shells.   NGrid=      2522
 Symmetry reduced   194 angular points to   194 for atom    2.
 Pruned (  99, 590) grid will be used in numerical quadrature.
 IPart=  5 Atom number   2 atomic number  6 has       23416 grid points.
 IPart=  5 Atom   2 batch    3 overlaps   13 atoms,   134 shells and    13 DB shells.   NGrid=      2114
 Symmetry reduced   302 angular points to   302 for atom    2.
 Pruned (  99, 590) grid will be used in numerical quadrature.
 IPart=  2 Atom number   2 atomic number  6 has       23416 grid points.
 IPart=  2 Atom   2 batch    4 overlaps   13 atoms,   135 shells and    13 DB shells.   NGrid=      1180
 Symmetry reduced   590 angular points to   590 for atom    2.
 Pruned (  99, 590) grid will be used in numerical quadrature.
 IPart= 10 Atom number   2 atomic number  6 has       23416 grid points.
 IPart= 10 Atom   2 batch    5 overlaps   13 atoms,   136 shells and    13 DB shells.   NGrid=      1180
 Symmetry reduced   590 angular points to   590 for atom    2.
 Pruned (  99, 590) grid will be used in numerical quadrature.
 IPart=  3 Atom number   2 atomic number  6 has       23416 grid points.
 IPart=  3 Atom   2 batch    6 overlaps   13 atoms,   139 shells and    13 DB shells.   NGrid=      1180
 Symmetry reduced   590 angular points to   590 for atom    2.
 Pruned (  99, 590) grid will be used in numerical quadrature.
 IPart= 12 Atom number   2 atomic number  6 has       23416 grid points.
 IPart= 12 Atom   2 batch    7 overlaps   13 atoms,   139 shells and    13 DB shells.   NGrid=      1180
 Symmetry reduced   590 angular points to   590 for atom    2.
 Pruned (  99, 590) grid will be used in numerical quadrature.
 IPart=  6 Atom number   2 atomic number  6 has       23416 grid points.
 IPart=  6 Atom   2 batch    8 overlaps   13 atoms,   141 shells and    13 DB shells.   NGrid=      1180
 Symmetry reduced   590 angular points to   590 for atom    2.
 Pruned (  99, 590) grid will be used in numerical quadrature.
 IPart= 13 Atom number   2 atomic number  6 has       23416 grid points.
 IPart= 13 Atom   2 batch    9 overlaps   13 atoms,   144 shells and    13 DB shells.   NGrid=      1180
 Symmetry reduced   590 angular points to   590 for atom    2.
 Pruned (  99, 590) grid will be used in numerical quadrature.
 IPart= 11 Atom number   2 atomic number  6 has       23416 grid points.
 IPart= 11 Atom   2 batch   10 overlaps   13 atoms,   145 shells and    13 DB shells.   NGrid=      1180
 Symmetry reduced   590 angular points to   590 for atom    2.
 Pruned (  99, 590) grid will be used in numerical quadrature.
 IPart=  7 Atom number   2 atomic number  6 has       23416 grid points.
 IPart=  7 Atom   2 batch   11 overlaps   13 atoms,   145 shells and    13 DB shells.   NGrid=      1180
 Symmetry reduced   590 angular points to   590 for atom    2.
 Pruned (  99, 590) grid will be used in numerical quadrature.
 IPart=  8 Atom number   2 atomic number  6 has       23416 grid points.
 IPart=  8 Atom   2 batch   12 overlaps   13 atoms,   146 shells and    13 DB shells.   NGrid=       590
 Symmetry reduced   590 angular points to   590 for atom    2.
 Pruned (  99, 590) grid will be used in numerical quadrature.
 IPart=  4 Atom number   2 atomic number  6 has       23416 grid points.
 IPart=  4 Atom   2 batch   13 overlaps   13 atoms,   146 shells and    13 DB shells.   NGrid=       604
 Symmetry reduced   302 angular points to   302 for atom    2.
 IPart= 10 Atom   2 batch   14 overlaps   13 atoms,   144 shells and    13 DB shells.   NGrid=       604
 Symmetry reduced   302 angular points to   302 for atom    2.
 IPart=  2 Atom   2 batch   15 overlaps   13 atoms,   140 shells and    13 DB shells.   NGrid=       604
 Symmetry reduced   302 angular points to   302 for atom    2.
 IPart=  8 Atom   2 batch   16 overlaps   13 atoms,   131 shells and    13 DB shells.   NGrid=       604
 Symmetry reduced   302 angular points to   302 for atom    2.
 IPart=  4 Atom   2 batch   17 overlaps   13 atoms,   119 shells and    13 DB shells.   NGrid=       604
 Pruned (  99, 590) grid will be used in numerical quadrature.
 IPart=  0 Atom number   2 atomic number  6 has       23416 grid points.
 IPart=  0 Atom   2 batch   18 overlaps   13 atoms,    99 shells and    13 DB shells.   NGrid=       604
 Symmetry reduced   302 angular points to   302 for atom    2.
 IPart=  2 Atom   2 batch   19 overlaps   13 atoms,    74 shells and    13 DB shells.   NGrid=       604
 IPart=  4 Atom   2 batch   20 overlaps   13 atoms,    47 shells and    10 DB shells.   NGrid=       604
 Pruned (  99, 590) grid will be used in numerical quadrature.
 IPart= 15 Atom number   2 atomic number  6 has       23416 grid points.
 IPart= 15 Atom   2 batch   21 overlaps   13 atoms,    24 shells and     2 DB shells.   NGrid=       604
 Symmetry reduced   302 angular points to   302 for atom    2.
 IPart=  4 Atom   2 batch   22 overlaps   13 atoms,    11 shells and     0 DB shells.   NGrid=       604
 IPart=  2 Atom   2 batch   23 overlaps   13 atoms,     0 shells and     0 DB shells.   NGrid=       302
 Pruned (  99, 590) grid will be used in numerical quadrature.
 IPart=  2 Atom number   3 atomic number  8 has       23718 grid points.
 IPart=  2 Atom   3 batch    1 overlaps   13 atoms,   128 shells and    13 DB shells.   NGrid=      2408
 Symmetry reduced    86 angular points to    86 for atom    3.
 Pruned (  99, 590) grid will be used in numerical quadrature.
 Pruned (  99, 590) grid will be used in numerical quadrature.
 IPart= 15 Atom number   3 atomic number  8 has       23718 grid points.
 IPart=  8 Atom number   3 atomic number  8 has       23718 grid points.
 IPart= 15 Atom   3 batch    2 overlaps   13 atoms,   131 shells and    13 DB shells.   NGrid=      2522
 IPart=  8 Atom   3 batch    3 overlaps   13 atoms,   131 shells and    13 DB shells.   NGrid=      2114
 Symmetry reduced   194 angular points to   194 for atom    3.
 Symmetry reduced   302 angular points to   302 for atom    3.
 Pruned (  99, 590) grid will be used in numerical quadrature.
 IPart=  4 Atom number   3 atomic number  8 has       23718 grid points.
 IPart=  4 Atom   3 batch    4 overlaps   13 atoms,   131 shells and    13 DB shells.   NGrid=      1180
 Pruned (  99, 590) grid will be used in numerical quadrature.
 Symmetry reduced   590 angular points to   590 for atom    3.
 IPart=  0 Atom number   3 atomic number  8 has       23718 grid points.
 IPart=  0 Atom   3 batch    5 overlaps   13 atoms,   132 shells and    13 DB shells.   NGrid=      1180
 Symmetry reduced   590 angular points to   590 for atom    3.
 Pruned (  99, 590) grid will be used in numerical quadrature.
 IPart= 10 Atom number   3 atomic number  8 has       23718 grid points.
 IPart= 10 Atom   3 batch    6 overlaps   13 atoms,   132 shells and    13 DB shells.   NGrid=      1180
 Symmetry reduced   590 angular points to   590 for atom    3.
 Pruned (  99, 590) grid will be used in numerical quadrature.
 IPart=  3 Atom number   3 atomic number  8 has       23718 grid points.
 IPart=  3 Atom   3 batch    7 overlaps   13 atoms,   132 shells and    13 DB shells.   NGrid=      1180
 Symmetry reduced   590 angular points to   590 for atom    3.
 Pruned (  99, 590) grid will be used in numerical quadrature.
 IPart=  1 Atom number   2 atomic number  6 has       23416 grid points.
 Pruned (  99, 590) grid will be used in numerical quadrature.
 IPart=  1 Atom number   3 atomic number  8 has       23718 grid points.
 IPart=  1 Atom   3 batch    8 overlaps   13 atoms,   134 shells and    13 DB shells.   NGrid=      1180
 Symmetry reduced   590 angular points to   590 for atom    3.
 Pruned (  99, 590) grid will be used in numerical quadrature.
 IPart= 12 Atom number   3 atomic number  8 has       23718 grid points.
 IPart= 12 Atom   3 batch    9 overlaps   13 atoms,   136 shells and    13 DB shells.   NGrid=      1180
 Symmetry reduced   590 angular points to   590 for atom    3.
 Pruned (  99, 590) grid will be used in numerical quadrature.
 IPart= 11 Atom number   3 atomic number  8 has       23718 grid points.
 IPart= 11 Atom   3 batch   10 overlaps   13 atoms,   137 shells and    13 DB shells.   NGrid=      1180
 Symmetry reduced   590 angular points to   590 for atom    3.
 Pruned (  99, 590) grid will be used in numerical quadrature.
 IPart=  6 Atom number   3 atomic number  8 has       23718 grid points.
 IPart=  6 Atom   3 batch   11 overlaps   13 atoms,   140 shells and    13 DB shells.   NGrid=      1180
 Symmetry reduced   590 angular points to   590 for atom    3.
 Pruned (  99, 590) grid will be used in numerical quadrature.
 Pruned (  99, 590) grid will be used in numerical quadrature.
 IPart=  5 Atom number   3 atomic number  8 has       23718 grid points.
 IPart= 13 Atom number   3 atomic number  8 has       23718 grid points.
 IPart=  5 Atom   3 batch   12 overlaps   13 atoms,   139 shells and    13 DB shells.   NGrid=       590
 IPart= 13 Atom   3 batch   13 overlaps   13 atoms,   144 shells and    13 DB shells.   NGrid=       604
 Symmetry reduced   590 angular points to   590 for atom    3.
 Symmetry reduced   302 angular points to   302 for atom    3.
 Pruned (  99, 590) grid will be used in numerical quadrature.
 IPart=  7 Atom number   3 atomic number  8 has       23718 grid points.
 IPart=  7 Atom   3 batch   14 overlaps   13 atoms,   145 shells and    13 DB shells.   NGrid=       604
 Symmetry reduced   302 angular points to   302 for atom    3.
 Pruned (  99, 590) grid will be used in numerical quadrature.
 IPart=  9 Atom number   3 atomic number  8 has       23718 grid points.
 IPart=  9 Atom   3 batch   15 overlaps   13 atoms,   143 shells and    13 DB shells.   NGrid=       604
 Symmetry reduced   302 angular points to   302 for atom    3.
 Pruned (  99, 590) grid will be used in numerical quadrature.
 IPart= 14 Atom number   3 atomic number  8 has       23718 grid points.
 IPart= 14 Atom   3 batch   16 overlaps   13 atoms,   141 shells and    13 DB shells.   NGrid=       604
 Symmetry reduced   302 angular points to   302 for atom    3.
 IPart=  9 Atom   3 batch   17 overlaps   13 atoms,   140 shells and    13 DB shells.   NGrid=       604
 IPart=  5 Atom   3 batch   18 overlaps   13 atoms,   130 shells and    13 DB shells.   NGrid=       604
 Symmetry reduced   302 angular points to   302 for atom    3.
 IPart=  7 Atom   3 batch   19 overlaps   13 atoms,   119 shells and    13 DB shells.   NGrid=       604
 IPart= 13 Atom   3 batch   20 overlaps   13 atoms,    94 shells and    12 DB shells.   NGrid=       604
 IPart= 13 Atom   3 batch   21 overlaps   13 atoms,    58 shells and    11 DB shells.   NGrid=       604
 IPart= 14 Atom   3 batch   22 overlaps   13 atoms,    29 shells and     4 DB shells.   NGrid=       604
 IPart= 13 Atom   3 batch   23 overlaps   13 atoms,    11 shells and     0 DB shells.   NGrid=       604
 Pruned (  99, 590) grid will be used in numerical quadrature.
 IPart= 13 Atom number   4 atomic number  8 has       24020 grid points.
 IPart= 13 Atom   4 batch    1 overlaps   13 atoms,   119 shells and    13 DB shells.   NGrid=      2408
 Symmetry reduced    86 angular points to    86 for atom    4.
 Pruned (  99, 590) grid will be used in numerical quadrature.
 IPart= 14 Atom number   4 atomic number  8 has       24020 grid points.
 IPart= 14 Atom   4 batch    2 overlaps   13 atoms,   121 shells and    13 DB shells.   NGrid=      2522
 Symmetry reduced   194 angular points to   194 for atom    4.
 Pruned (  99, 590) grid will be used in numerical quadrature.
 IPart=  4 Atom number   4 atomic number  8 has       24020 grid points.
 IPart=  4 Atom   4 batch    3 overlaps   13 atoms,   122 shells and    13 DB shells.   NGrid=      2114
 Symmetry reduced   302 angular points to   302 for atom    4.
 Pruned (  99, 590) grid will be used in numerical quadrature.
 IPart=  7 Atom number   4 atomic number  8 has       24020 grid points.
 IPart=  7 Atom   4 batch    4 overlaps   13 atoms,   123 shells and    13 DB shells.   NGrid=      1180
 Symmetry reduced   590 angular points to   590 for atom    4.
 Pruned (  99, 590) grid will be used in numerical quadrature.
 Pruned (  99, 590) grid will be used in numerical quadrature.
 IPart=  0 Atom number   4 atomic number  8 has       24020 grid points.
 IPart=  5 Atom number   4 atomic number  8 has       24020 grid points.
 IPart=  0 Atom   4 batch    5 overlaps   13 atoms,   126 shells and    13 DB shells.   NGrid=      1180
 IPart=  5 Atom   4 batch    6 overlaps   13 atoms,   127 shells and    13 DB shells.   NGrid=      1180
 Symmetry reduced   590 angular points to   590 for atom    4.
 Symmetry reduced   590 angular points to   590 for atom    4.
 Pruned (  99, 590) grid will be used in numerical quadrature.
 IPart= 10 Atom number   4 atomic number  8 has       24020 grid points.
 IPart= 10 Atom   4 batch    7 overlaps   13 atoms,   127 shells and    13 DB shells.   NGrid=      1180
 Symmetry reduced   590 angular points to   590 for atom    4.
 Pruned (  99, 590) grid will be used in numerical quadrature.
 IPart=  9 Atom number   4 atomic number  8 has       24020 grid points.
 IPart=  9 Atom   4 batch    8 overlaps   13 atoms,   131 shells and    13 DB shells.   NGrid=      1180
 Symmetry reduced   590 angular points to   590 for atom    4.
 Pruned (  99, 590) grid will be used in numerical quadrature.
 IPart=  3 Atom number   4 atomic number  8 has       24020 grid points.
[...]
 3829 Fit      -0.106173
 3830 Fit      -0.104553
 3831 Fit      -0.145667
 3832 Fit      -0.133666
 3833 Fit      -0.124613
 3834 Fit      -0.117874
 3835 Fit      -0.112968
 3836 Fit      -0.109544
 3837 Fit      -0.107347
 3838 Fit      -0.106163
 3839 Fit      -0.147455
 3840 Fit      -0.135162
 3841 Fit      -0.126106
 3842 Fit      -0.119486
 3843 Fit      -0.114753
 3844 Fit      -0.111531
 3845 Fit      -0.109572
 3846 Fit      -0.108706
 3847 Fit      -0.132440
 3848 Fit      -0.124502
 3849 Fit      -0.118912
 3850 Fit      -0.115144
 3851 Fit      -0.112871
 3852 Fit      -0.132437
 3853 Fit      -0.124500
 3854 Fit      -0.118910
 3855 Fit      -0.115142
 3856 Fit      -0.112869
 3857 Fit      -0.147454
 3858 Fit      -0.135160
 3859 Fit      -0.126105
 3860 Fit      -0.119485
 3861 Fit      -0.114751
 3862 Fit      -0.111529
 3863 Fit      -0.109571
 3864 Fit      -0.108704
 3865 Fit      -0.145667
 3866 Fit      -0.133665
 3867 Fit      -0.124613
 3868 Fit      -0.117873
 3869 Fit      -0.112967
 3870 Fit      -0.109544
 3871 Fit      -0.107346
 3872 Fit      -0.106162
 3873 Fit      -0.147669
 3874 Fit      -0.135331
 3875 Fit      -0.125673
 3876 Fit      -0.118291
 3877 Fit      -0.112791
 3878 Fit      -0.108840
 3879 Fit      -0.106172
 3880 Fit      -0.104553
 3881 Fit      -0.147997
 3882 Fit      -0.136517
 3883 Fit      -0.126920
 3884 Fit      -0.119246
 3885 Fit      -0.113329
 3886 Fit      -0.108940
 3887 Fit      -0.105853
 3888 Fit      -0.103854
 3889 Fit      -0.102707
 3890 Fit      -0.144059
 3891 Fit      -0.134118
 3892 Fit      -0.125197
 3893 Fit      -0.117794
 3894 Fit      -0.112002
 3895 Fit      -0.107722
 3896 Fit      -0.104781
 3897 Fit      -0.102976
 3898 Fit      -0.102072
 3899 Fit      -0.145879
 3900 Fit      -0.139449
 3901 Fit      -0.131611
 3902 Fit      -0.123763
 3903 Fit      -0.116846
 3904 Fit      -0.111295
 3905 Fit      -0.107205
 3906 Fit      -0.104496
 3907 Fit      -0.103010
 3908 Fit      -0.102575
 3909 Fit      -0.106027
 3910 Fit      -0.109033
 3911 Fit      -0.113163
 3912 Fit      -0.118147
 3913 Fit      -0.123791
 3914 Fit      -0.129528
 3915 Fit      -0.134303
 3916 Fit      -0.137268
 3917 Fit      -0.137986
 3918 Fit      -0.136020
 3919 Fit      -0.131361
 3920 Fit      -0.124980
 3921 Fit      -0.118322
 3922 Fit      -0.112525
 3923 Fit      -0.108167
 3924 Fit      -0.105406
 3925 Fit      -0.104181
 3926 Fit      -0.104395
 3927 Fit      -0.107869
 3928 Fit      -0.111284
 3929 Fit      -0.116184
 3930 Fit      -0.121653
 3931 Fit      -0.126210
 3932 Fit      -0.128248
 3933 Fit      -0.126841
 3934 Fit      -0.122240
 3935 Fit      -0.116203
 3936 Fit      -0.110863
 3937 Fit      -0.107504
 3938 Fit      -0.106518
 3939 Fit      -0.110638
 3940 Fit      -0.114971
 3941 Fit      -0.119718
 3942 Fit      -0.119844
 3943 Fit      -0.114953
 3944 Fit      -0.110522
 3945 Fit      -0.114551
 3946 Fit      -0.109638
 3947 Fit      -0.105405
 3948 Fit      -0.106777
 3949 Fit      -0.111785
 3950 Fit      -0.115383
 3951 Fit      -0.113227
 3952 Fit      -0.108302
 3953 Fit      -0.102463
 3954 Fit      -0.102448
 3955 Fit      -0.104610
 3956 Fit      -0.108985
 3957 Fit      -0.114836
 3958 Fit      -0.120299
 3959 Fit      -0.122965
 3960 Fit      -0.121727
 3961 Fit      -0.117581
 3962 Fit      -0.112383
 3963 Fit      -0.107683
 3964 Fit      -0.104296
 3965 Fit      -0.100669
 3966 Fit      -0.100136
 3967 Fit      -0.100869
 3968 Fit      -0.103103
 3969 Fit      -0.106956
 3970 Fit      -0.112359
 3971 Fit      -0.118880
 3972 Fit      -0.125507
 3973 Fit      -0.130661
 3974 Fit      -0.132846
 3975 Fit      -0.131656
 3976 Fit      -0.127890
 3977 Fit      -0.122713
 3978 Fit      -0.117153
 3979 Fit      -0.107667
 3980 Fit      -0.104450
 3981 Fit      -0.102165
 3982 Fit      -0.099941
 3983 Fit      -0.099041
 3984 Fit      -0.099075
 3985 Fit      -0.100257
 3986 Fit      -0.102735
 3987 Fit      -0.106629
 3988 Fit      -0.112012
 3989 Fit      -0.118822
 3990 Fit      -0.126696
 3991 Fit      -0.134750
 3992 Fit      -0.141492
 3993 Fit      -0.145248
 3994 Fit      -0.098415
 3995 Fit      -0.098968
 3996 Fit      -0.100656
 3997 Fit      -0.103585
 3998 Fit      -0.107893
 3999 Fit      -0.113729
 4000 Fit      -0.121195
 4001 Fit      -0.130225
 4002 Fit      -0.140368
 4003 Fit      -0.098620
 4004 Fit      -0.099678
 4005 Fit      -0.101807
 4006 Fit      -0.105113
 4007 Fit      -0.109758
 4008 Fit      -0.115948
 4009 Fit      -0.123907
 4010 Fit      -0.133811
 4011 Fit      -0.145633
 4012 Fit      -0.099049
 4013 Fit      -0.099894
 4014 Fit      -0.101789
 4015 Fit      -0.104827
 4016 Fit      -0.109181
 4017 Fit      -0.115101
 4018 Fit      -0.122916
 4019 Fit      -0.133022
 4020 Fit      -0.145832
 4021 Fit      -0.100662
 4022 Fit      -0.102371
 4023 Fit      -0.105137
 4024 Fit      -0.109135
 4025 Fit      -0.114621
 4026 Fit      -0.121955
 4027 Fit      -0.131625
 4028 Fit      -0.144271
 4029 Fit      -0.106585
 4030 Fit      -0.110548
 4031 Fit      -0.116000
 4032 Fit      -0.123342
 4033 Fit      -0.133141
 4034 Fit      -0.146204
 4035 Fit      -0.120720
 4036 Fit      -0.129414
 4037 Fit      -0.141259
 4038 Fit      -0.120722
 4039 Fit      -0.129416
 4040 Fit      -0.141261
 4041 Fit      -0.106586
 4042 Fit      -0.110549
 4043 Fit      -0.116001
 4044 Fit      -0.123343
 4045 Fit      -0.133142
 4046 Fit      -0.146204
 4047 Fit      -0.100661
 4048 Fit      -0.102371
 4049 Fit      -0.105137
 4050 Fit      -0.109135
 4051 Fit      -0.114621
 4052 Fit      -0.121955
 4053 Fit      -0.131624
 4054 Fit      -0.144269
 4055 Fit      -0.099048
 4056 Fit      -0.099894
 4057 Fit      -0.101789
 4058 Fit      -0.104827
 4059 Fit      -0.109180
 4060 Fit      -0.115100
 4061 Fit      -0.122914
 4062 Fit      -0.133020
 4063 Fit      -0.145827
 4064 Fit      -0.098618
 4065 Fit      -0.099677
 4066 Fit      -0.101806
 4067 Fit      -0.105112
 4068 Fit      -0.109756
 4069 Fit      -0.115945
 4070 Fit      -0.123904
 4071 Fit      -0.133806
 4072 Fit      -0.145625
 4073 Fit      -0.098413
 4074 Fit      -0.098966
 4075 Fit      -0.100654
 4076 Fit      -0.103583
 4077 Fit      -0.107891
 4078 Fit      -0.113726
 4079 Fit      -0.121191
 4080 Fit      -0.130219
 4081 Fit      -0.140359
 4082 Fit      -0.099938
 4083 Fit      -0.099038
 4084 Fit      -0.099073
 4085 Fit      -0.100255
 4086 Fit      -0.102733
 4087 Fit      -0.106626
 4088 Fit      -0.112008
 4089 Fit      -0.118817
 4090 Fit      -0.126689
 4091 Fit      -0.134741
 4092 Fit      -0.141481
 4093 Fit      -0.145236
 4094 Fit      -0.100666
 4095 Fit      -0.100133
 4096 Fit      -0.100866
 4097 Fit      -0.103100
 4098 Fit      -0.106952
 4099 Fit      -0.112354
 4100 Fit      -0.118874
 4101 Fit      -0.125500
 4102 Fit      -0.130652
 4103 Fit      -0.132836
 4104 Fit      -0.131647
 4105 Fit      -0.127883
 4106 Fit      -0.122707
 4107 Fit      -0.117148
 4108 Fit      -0.107663
 4109 Fit      -0.104447
 4110 Fit      -0.102162
 4111 Fit      -0.102460
 4112 Fit      -0.102444
 4113 Fit      -0.104606
 4114 Fit      -0.108981
 4115 Fit      -0.114830
 4116 Fit      -0.120292
 4117 Fit      -0.122958
 4118 Fit      -0.121720
 4119 Fit      -0.117575
 4120 Fit      -0.112378
 4121 Fit      -0.107679
 4122 Fit      -0.104292
 4123 Fit      -0.105401
 4124 Fit      -0.106773
 4125 Fit      -0.111780
 4126 Fit      -0.115378
 4127 Fit      -0.113222
 4128 Fit      -0.108297
 4129 Fit      -0.109633
 4130 Fit      -0.094920
 4131 Fit      -0.099049
 4132 Fit      -0.091177
 4133 Fit      -0.094092
 4134 Fit      -0.097949
 4135 Fit      -0.087170
 4136 Fit      -0.088625
 4137 Fit      -0.090791
 4138 Fit      -0.093831
 4139 Fit      -0.097782
 4140 Fit      -0.085492
 4141 Fit      -0.086467
 4142 Fit      -0.087930
 4143 Fit      -0.090046
 4144 Fit      -0.092943
 4145 Fit      -0.096672
 4146 Fit      -0.083705
 4147 Fit      -0.084127
 4148 Fit      -0.093225
 4149 Fit      -0.097331
 4150 Fit      -0.082707
 4151 Fit      -0.098053
 4152 Fit      -0.082622
 4153 Fit      -0.081849
 4154 Fit      -0.082049
 4155 Fit      -0.081890
 4156 Fit      -0.082486
 4157 Fit      -0.081899
 4158 Fit      -0.081519
 4159 Fit      -0.081288
 4160 Fit      -0.084202
 4161 Fit      -0.083032
 4162 Fit      -0.082165
 4163 Fit      -0.081550
 4164 Fit      -0.081134
 4165 Fit      -0.080854
 4166 Fit      -0.109258
 4167 Fit      -0.102806
 4168 Fit      -0.097697
 4169 Fit      -0.093645
 4170 Fit      -0.090423
 4171 Fit      -0.087859
 4172 Fit      -0.085823
 4173 Fit      -0.084221
 4174 Fit      -0.082984
 4175 Fit      -0.082060
 4176 Fit      -0.081400
 4177 Fit      -0.080947
 4178 Fit      -0.080631
 4179 Fit      -0.109258
 4180 Fit      -0.102806
 4181 Fit      -0.097697
 4182 Fit      -0.093645
 4183 Fit      -0.090423
 4184 Fit      -0.087859
 4185 Fit      -0.085823
 4186 Fit      -0.084221
 4187 Fit      -0.082984
 4188 Fit      -0.082060
 4189 Fit      -0.081400
 4190 Fit      -0.080947
 4191 Fit      -0.080631
 4192 Fit      -0.084202
 4193 Fit      -0.083032
 4194 Fit      -0.082165
 4195 Fit      -0.081550
 4196 Fit      -0.081134
 4197 Fit      -0.080854
 4198 Fit      -0.082485
 4199 Fit      -0.081899
 4200 Fit      -0.081519
 4201 Fit      -0.081288
 4202 Fit      -0.081848
 4203 Fit      -0.082049
 4204 Fit      -0.081889
 4205 Fit      -0.082707
 4206 Fit      -0.098052
 4207 Fit      -0.082622
 4208 Fit      -0.083705
 4209 Fit      -0.084127
 4210 Fit      -0.093225
 4211 Fit      -0.097331
 4212 Fit      -0.085492
 4213 Fit      -0.086467
 4214 Fit      -0.087930
 4215 Fit      -0.090046
 4216 Fit      -0.092943
 4217 Fit      -0.096672
 4218 Fit      -0.087170
 4219 Fit      -0.088625
 4220 Fit      -0.090791
 4221 Fit      -0.093831
 4222 Fit      -0.097782
 4223 Fit      -0.091177
 4224 Fit      -0.094092
 4225 Fit      -0.097949
 4226 Fit      -0.094920
 4227 Fit      -0.099049
 4228 Fit      -0.090501
 4229 Fit      -0.087205
 4230 Fit      -0.090155
 4231 Fit      -0.093991
 4232 Fit      -0.094731
 4233 Fit      -0.091327
 4234 Fit      -0.087655
 4235 Fit      -0.084752
 4236 Fit      -0.086893
 4237 Fit      -0.090268
 4238 Fit      -0.094332
 4239 Fit      -0.098145
 4240 Fit      -0.100382
 4241 Fit      -0.099983
 4242 Fit      -0.097007
 4243 Fit      -0.092646
 4244 Fit      -0.088414
 4245 Fit      -0.085430
 4246 Fit      -0.084195
 4247 Fit      -0.083060
 4248 Fit      -0.084848
 4249 Fit      -0.087467
 4250 Fit      -0.090810
 4251 Fit      -0.094739
 4252 Fit      -0.098968
 4253 Fit      -0.102962
 4254 Fit      -0.105977
 4255 Fit      -0.107240
 4256 Fit      -0.106317
 4257 Fit      -0.103406
 4258 Fit      -0.099181
 4259 Fit      -0.094458
 4260 Fit      -0.089999
 4261 Fit      -0.086353
 4262 Fit      -0.083804
 4263 Fit      -0.082436
 4264 Fit      -0.082218
 4265 Fit      -0.082057
 4266 Fit      -0.083726
 4267 Fit      -0.086022
 4268 Fit      -0.088902
 4269 Fit      -0.098462
 4270 Fit      -0.093472
 4271 Fit      -0.089100
 4272 Fit      -0.085606
 4273 Fit      -0.083082
 4274 Fit      -0.081522
 4275 Fit      -0.080878
 4276 Fit      -0.081082
 4277 Fit      -0.081678
 4278 Fit      -0.083315
 4279 Fit      -0.085462
 4280 Fit      -0.099510
 4281 Fit      -0.094217
 4282 Fit      -0.089666
 4283 Fit      -0.086017
 4284 Fit      -0.083292
 4285 Fit      -0.081450
 4286 Fit      -0.080432
 4287 Fit      -0.080173
 4288 Fit      -0.080610
 4289 Fit      -0.081867
 4290 Fit      -0.083453
 4291 Fit      -0.100730
 4292 Fit      -0.095264
 4293 Fit      -0.090630
 4294 Fit      -0.086904
 4295 Fit      -0.084057
 4296 Fit      -0.082024
 4297 Fit      -0.080736
 4298 Fit      -0.080131
 4299 Fit      -0.080152
 4300 Fit      -0.080748
 4301 Fit      -0.099851
 4302 Fit      -0.094376
 4303 Fit      -0.089928
 4304 Fit      -0.086455
 4305 Fit      -0.083864
 4306 Fit      -0.082064
 4307 Fit      -0.080975
 4308 Fit      -0.080533
 4309 Fit      -0.080685
 4310 Fit      -0.081384
 4311 Fit      -0.105216
 4312 Fit      -0.098893
 4313 Fit      -0.093733
 4314 Fit      -0.089654
 4315 Fit      -0.086528
 4316 Fit      -0.084237
 4317 Fit      -0.082682
 4318 Fit      -0.081787
 4319 Fit      -0.081494
 4320 Fit      -0.081757
 4321 Fit      -0.105996
 4322 Fit      -0.099631
 4323 Fit      -0.094565
 4324 Fit      -0.090619
 4325 Fit      -0.087628
 4326 Fit      -0.085458
 4327 Fit      -0.084008
 4328 Fit      -0.083200
 4329 Fit      -0.082981
 4330 Fit      -0.103685
 4331 Fit      -0.097926
 4332 Fit      -0.093493
 4333 Fit      -0.090156
 4334 Fit      -0.087745
 4335 Fit      -0.084764
 4336 Fit      -0.085733
 4337 Fit      -0.088209
 4338 Fit      -0.092177
 4339 Fit      -0.082471
 4340 Fit      -0.081821
 4341 Fit      -0.082223
 4342 Fit      -0.083758
 4343 Fit      -0.086493
 4344 Fit      -0.090472
 4345 Fit      -0.095664
 4346 Fit      -0.080228
 4347 Fit      -0.079474
 4348 Fit      -0.079584
 4349 Fit      -0.080620
 4350 Fit      -0.082653
 4351 Fit      -0.085759
 4352 Fit      -0.090015
 4353 Fit      -0.095470
 4354 Fit      -0.081786
 4355 Fit      -0.078484
 4356 Fit      -0.077686
 4357 Fit      -0.077596
 4358 Fit      -0.078262
 4359 Fit      -0.079738
 4360 Fit      -0.082096
 4361 Fit      -0.085416
 4362 Fit      -0.089796
 4363 Fit      -0.095337
 4364 Fit      -0.079951
 4365 Fit      -0.077238
 4366 Fit      -0.076406
 4367 Fit      -0.076232
 4368 Fit      -0.076756
 4369 Fit      -0.078033
 4370 Fit      -0.080127
 4371 Fit      -0.083123
 4372 Fit      -0.087128
 4373 Fit      -0.092275
 4374 Fit      -0.098717
 4375 Fit      -0.080754
 4376 Fit      -0.078695
 4377 Fit      -0.076491
 4378 Fit      -0.075654
 4379 Fit      -0.075417
 4380 Fit      -0.075816
 4381 Fit      -0.076898
 4382 Fit      -0.078720
 4383 Fit      -0.081358
 4384 Fit      -0.084909
 4385 Fit      -0.089499
 4386 Fit      -0.095294
 4387 Fit      -0.079865
 4388 Fit      -0.077900
 4389 Fit      -0.076242
 4390 Fit      -0.075409
 4391 Fit      -0.075147
 4392 Fit      -0.075491
 4393 Fit      -0.076483
 4394 Fit      -0.078176
 4395 Fit      -0.080641
 4396 Fit      -0.083967
 4397 Fit      -0.088272
 4398 Fit      -0.093712
 4399 Fit      -0.100488
 4400 Fit      -0.079531
 4401 Fit      -0.077621
 4402 Fit      -0.076491
 4403 Fit      -0.075654
 4404 Fit      -0.075417
 4405 Fit      -0.075816
 4406 Fit      -0.076898
 4407 Fit      -0.078720
 4408 Fit      -0.081358
 4409 Fit      -0.084909
 4410 Fit      -0.089499
 4411 Fit      -0.095294
 4412 Fit      -0.079865
 4413 Fit      -0.077900
 4414 Fit      -0.077238
 4415 Fit      -0.076406
 4416 Fit      -0.076231
 4417 Fit      -0.076756
 4418 Fit      -0.078032
 4419 Fit      -0.080127
 4420 Fit      -0.083123
 4421 Fit      -0.087127
 4422 Fit      -0.092274
 4423 Fit      -0.098717
 4424 Fit      -0.080754
 4425 Fit      -0.078695
 4426 Fit      -0.078483
 4427 Fit      -0.077685
 4428 Fit      -0.077595
 4429 Fit      -0.078261
 4430 Fit      -0.079738
 4431 Fit      -0.082095
 4432 Fit      -0.085415
 4433 Fit      -0.089796
 4434 Fit      -0.095336
 4435 Fit      -0.079950
 4436 Fit      -0.080227
 4437 Fit      -0.079473
 4438 Fit      -0.079583
 4439 Fit      -0.080619
 4440 Fit      -0.082652
 4441 Fit      -0.085758
 4442 Fit      -0.090014
 4443 Fit      -0.095469
 4444 Fit      -0.081785
 4445 Fit      -0.082470
 4446 Fit      -0.081820
 4447 Fit      -0.082222
 4448 Fit      -0.083757
 4449 Fit      -0.086492
 4450 Fit      -0.090471
 4451 Fit      -0.095663
 4452 Fit      -0.084763
 4453 Fit      -0.085732
 4454 Fit      -0.088208
 4455 Fit      -0.092176
 4456 Fit      -0.103682
 4457 Fit      -0.097924
 4458 Fit      -0.093490
 4459 Fit      -0.090154
 4460 Fit      -0.087743
 4461 Fit      -0.105994
 4462 Fit      -0.099629
 4463 Fit      -0.094563
 4464 Fit      -0.090617
 4465 Fit      -0.087626
 4466 Fit      -0.085456
 4467 Fit      -0.084006
 4468 Fit      -0.083199
 4469 Fit      -0.082980
 4470 Fit      -0.105214
 4471 Fit      -0.098891
 4472 Fit      -0.093732
 4473 Fit      -0.089653
 4474 Fit      -0.086527
 4475 Fit      -0.084235
 4476 Fit      -0.082681
 4477 Fit      -0.081786
 4478 Fit      -0.081493
 4479 Fit      -0.081756
 4480 Fit      -0.099850
 4481 Fit      -0.094375
 4482 Fit      -0.089927
 4483 Fit      -0.086454
 4484 Fit      -0.083863
 4485 Fit      -0.082063
 4486 Fit      -0.080974
 4487 Fit      -0.080532
 4488 Fit      -0.080684
 4489 Fit      -0.081384
 4490 Fit      -0.081868
 4491 Fit      -0.083453
 4492 Fit      -0.100728
 4493 Fit      -0.095263
 4494 Fit      -0.090629
 4495 Fit      -0.086903
 4496 Fit      -0.084056
 4497 Fit      -0.082023
 4498 Fit      -0.080736
 4499 Fit      -0.080130
 4500 Fit      -0.080152
 4501 Fit      -0.080748
 4502 Fit      -0.081679
 4503 Fit      -0.083316
 4504 Fit      -0.085463
 4505 Fit      -0.099510
 4506 Fit      -0.094216
 4507 Fit      -0.089665
 4508 Fit      -0.086016
 4509 Fit      -0.083291
 4510 Fit      -0.081450
 4511 Fit      -0.080432
 4512 Fit      -0.080173
 4513 Fit      -0.080610
 4514 Fit      -0.082058
 4515 Fit      -0.083727
 4516 Fit      -0.086023
 4517 Fit      -0.088903
 4518 Fit      -0.098462
 4519 Fit      -0.093471
 4520 Fit      -0.089100
 4521 Fit      -0.085606
 4522 Fit      -0.083082
 4523 Fit      -0.081522
 4524 Fit      -0.080878
 4525 Fit      -0.081082
 4526 Fit      -0.083061
 4527 Fit      -0.084849
 4528 Fit      -0.087469
 4529 Fit      -0.090812
 4530 Fit      -0.094741
 4531 Fit      -0.098969
 4532 Fit      -0.102963
 4533 Fit      -0.105978
 4534 Fit      -0.107241
 4535 Fit      -0.106318
 4536 Fit      -0.103406
 4537 Fit      -0.099182
 4538 Fit      -0.094459
 4539 Fit      -0.089999
 4540 Fit      -0.086353
 4541 Fit      -0.083804
 4542 Fit      -0.082437
 4543 Fit      -0.082219
 4544 Fit      -0.084752
 4545 Fit      -0.086894
 4546 Fit      -0.090269
 4547 Fit      -0.094334
 4548 Fit      -0.098147
 4549 Fit      -0.100383
 4550 Fit      -0.099984
 4551 Fit      -0.097008
 4552 Fit      -0.092646
 4553 Fit      -0.088414
 4554 Fit      -0.085430
 4555 Fit      -0.084195
 4556 Fit      -0.087205
 4557 Fit      -0.090156
 4558 Fit      -0.093993
 4559 Fit      -0.094732
 4560 Fit      -0.091328
 4561 Fit      -0.087655
 4562 Fit      -0.090502
 -----------------------------------------------------------------
 Leave Link  602 at Tue Sep 30 18:13:35 2025, MaxMem=  4294967296 cpu:               3.7 elap:               0.2
 (Enter /software/sse/easybuild/prefix/software/Gaussian/16.C.01-avx2-nsc1/g16/l9999.exe)

 Test job not archived.
 1\1\NSC-N1101\FOpt\RMP2-FC\Aug-CC-pVTZ\C4H7O2(1-)\X_DAVVA\30-Sep-2025\
 0\\#P MP2/aug-cc-pvtz Opt=tight density=MP2 Pop=(MK,Hirshfeld) iop(6/3
 3=2) iop(6/42=6) maxdisk=128GB\\butanoate\\-1,1\C,0.1576149322,-0.5757
 146513,0.0000324641\C,-1.2834447755,0.0083001663,0.0000230771\O,-1.379
 3822783,1.2649652492,0.0000752529\O,-2.2004122474,-0.8556641984,-0.000
 0256215\C,1.2758973924,0.4529174639,-0.0000544199\H,0.2450817491,-1.23
 01119253,0.8735014849\H,0.2450506256,-1.2302389048,-0.8733430577\H,1.1
 600281142,1.1023035969,0.8692010304\H,1.1600378337,1.102152896,-0.8694
 25024\C,2.6605403988,-0.19008467,0.0000037895\H,2.7945755999,-0.823760
 4091,0.8797884141\H,3.4605222504,0.5546233211,-0.0000607339\H,2.794580
 4049,-0.8239179345,-0.879666656\\Version=ES64L-G16RevC.01\State=1-A\HF
 =-305.4249369\MP2=-306.612168\RMSD=4.241e-09\RMSF=4.864e-07\Dipole=3.0
 640098,-0.3402482,-0.0000203\Quadrupole=-9.8936018,1.2114568,8.682145,
 -0.1269583,0.0000096,-0.0002598\PG=C01 [X(C4H7O2)]\\@


 IF THE FACTS DO NOT CONFORM TO THE THEORY, THEY MUST BE DISPOSED OF.
 Job cpu time:       0 days 19 hours 46 minutes 44.4 seconds.
 Elapsed time:       0 days  1 hours 14 minutes 41.3 seconds.
 File lengths (MBytes):  RWF=  30275 Int=      0 D2E=      0 Chk=     24 Scr=      1
 Normal termination of Gaussian 16 at Tue Sep 30 18:13:37 2025.
