 Entering Gaussian System, Link 0=/software/sse/easybuild/prefix/software/Gaussian/16.C.01-avx2-nsc1/g16/g16.orig
 Input=acetate.wrap
 Output=acetate.log
 Initial command:
 /software/sse/easybuild/prefix/software/Gaussian/16.C.01-avx2-nsc1/g16/l1.exe "/scratch/local/Gau-1261140.inp" -scrdir="/scratch/local/"
 Entering Link 1 = /software/sse/easybuild/prefix/software/Gaussian/16.C.01-avx2-nsc1/g16/l1.exe PID=   1261141.
  
 Copyright (c) 1988-2019, Gaussian, Inc.  All Rights Reserved.
  
 This is part of the Gaussian(R) 16 program.  It is based on
 the Gaussian(R) 09 system (copyright 2009, Gaussian, Inc.),
 the Gaussian(R) 03 system (copyright 2003, Gaussian, Inc.),
 the Gaussian(R) 98 system (copyright 1998, Gaussian, Inc.),
 the Gaussian(R) 94 system (copyright 1995, Gaussian, Inc.),
 the Gaussian 92(TM) system (copyright 1992, Gaussian, Inc.),
 the Gaussian 90(TM) system (copyright 1990, Gaussian, Inc.),
 the Gaussian 88(TM) system (copyright 1988, Gaussian, Inc.),
 the Gaussian 86(TM) system (copyright 1986, Carnegie Mellon
 University), and the Gaussian 82(TM) system (copyright 1983,
 Carnegie Mellon University). Gaussian is a federally registered
 trademark of Gaussian, Inc.
  
 This software contains proprietary and confidential information,
 including trade secrets, belonging to Gaussian, Inc.
  
 This software is provided under written license and may be
 used, copied, transmitted, or stored only in accord with that
 written license.
  
 The following legend is applicable only to US Government
 contracts under FAR:
  
                    RESTRICTED RIGHTS LEGEND
  
 Use, reproduction and disclosure by the US Government is
 subject to restrictions as set forth in subparagraphs (a)
 and (c) of the Commercial Computer Software - Restricted
 Rights clause in FAR 52.227-19.
  
 Gaussian, Inc.
 340 Quinnipiac St., Bldg. 40, Wallingford CT 06492
  
  
 ---------------------------------------------------------------
 Warning -- This program may not be used in any manner that
 competes with the business of Gaussian, Inc. or will provide
 assistance to any competitor of Gaussian, Inc.  The licensee
 of this program is prohibited from giving any competitor of
 Gaussian, Inc. access to this program.  By using this program,
 the user acknowledges that Gaussian, Inc. is engaged in the
 business of creating and licensing software in the field of
 computational chemistry and represents and warrants to the
 licensee that it is not a competitor of Gaussian, Inc. and that
 it will not use this program in any manner prohibited above.
 ---------------------------------------------------------------
  

 Cite this work as:
 Gaussian 16, Revision C.01,
 M. J. Frisch, G. W. Trucks, H. B. Schlegel, G. E. Scuseria, 
 M. A. Robb, J. R. Cheeseman, G. Scalmani, V. Barone, 
 G. A. Petersson, H. Nakatsuji, X. Li, M. Caricato, A. V. Marenich, 
 J. Bloino, B. G. Janesko, R. Gomperts, B. Mennucci, H. P. Hratchian, 
 J. V. Ortiz, A. F. Izmaylov, J. L. Sonnenberg, D. Williams-Young, 
 F. Ding, F. Lipparini, F. Egidi, J. Goings, B. Peng, A. Petrone, 
 T. Henderson, D. Ranasinghe, V. G. Zakrzewski, J. Gao, N. Rega, 
 G. Zheng, W. Liang, M. Hada, M. Ehara, K. Toyota, R. Fukuda, 
 J. Hasegawa, M. Ishida, T. Nakajima, Y. Honda, O. Kitao, H. Nakai, 
 T. Vreven, K. Throssell, J. A. Montgomery, Jr., J. E. Peralta, 
 F. Ogliaro, M. J. Bearpark, J. J. Heyd, E. N. Brothers, K. N. Kudin, 
 V. N. Staroverov, T. A. Keith, R. Kobayashi, J. Normand, 
 K. Raghavachari, A. P. Rendell, J. C. Burant, S. S. Iyengar, 
 J. Tomasi, M. Cossi, J. M. Millam, M. Klene, C. Adamo, R. Cammi, 
 J. W. Ochterski, R. L. Martin, K. Morokuma, O. Farkas, 
 J. B. Foresman, and D. J. Fox, Gaussian, Inc., Wallingford CT, 2019.
 
 ******************************************
 Gaussian 16:  ES64L-G16RevC.01  3-Jul-2019
                30-Sep-2025 
 ******************************************
 %mem=12000MB
 %nprocshared=16
 Will use up to   16 processors via shared memory.
 %mem=32Gb
 %chk=acetate.chk
 ----------------------------------------------------------------------
 #P HF/aug-cc-pvtz Opt=tight Pop=(MK,Hirshfeld) iop(6/33=2) iop(6/42=6)
  maxdisk=128GB
 ----------------------------------------------------------------------
 1/7=10,18=20,19=15,38=1/1,3;
 2/9=110,12=2,17=6,18=5,40=1/2;
 3/5=16,6=1,7=10,11=9,25=1,30=1,71=1/1,2,3;
 4//1;
 5/5=2,38=5/2;
 6/7=2,8=2,9=2,10=2,15=8,20=1,28=1,33=2,42=6,79=1/1,2;
 7//1,2,3,16;
 1/7=10,18=20,19=15/3(2);
 2/9=110/2;
 99//99;
 2/9=110/2;
 3/5=16,6=1,7=10,11=9,25=1,30=1,71=1/1,2,3;
 4/5=5,16=3,69=1/1;
 5/5=2,38=5/2;
 7//1,2,3,16;
 1/7=10,18=20,19=15/3(-5);
 2/9=110/2;
 6/7=2,8=2,9=2,10=2,15=8,19=2,20=1,28=1,33=2,42=6,79=1/1,2;
 99/9=1/99;
 Leave Link    1 at Tue Sep 30 16:58:49 2025, MaxMem=  4294967296 cpu:               0.9 elap:               0.1
 (Enter /software/sse/easybuild/prefix/software/Gaussian/16.C.01-avx2-nsc1/g16/l101.exe)
 -------
 acetate
 -------
 Symbolic Z-matrix:
 Charge = -1 Multiplicity = 1
 C                    -1.33628  -0.00002  -0.00511 
 C                     0.2097    0.       -0.00957 
 O                     0.74312  -1.11089   0.00175 
 O                     0.74308   1.11092   0.00175 
 H                    -1.72751  -0.89026  -0.48403 
 H                    -1.67508   0.00016   1.02842 
 H                    -1.72753   0.89004  -0.48434 
 
 ITRead=  0  0  0  0  0  0  0
 MicOpt= -1 -1 -1 -1 -1 -1 -1
 NAtoms=      7 NQM=        7 NQMF=       0 NMMI=      0 NMMIF=      0
                NMic=       0 NMicF=      0.
                    Isotopes and Nuclear Properties:
 (Nuclear quadrupole moments (NQMom) in fm**2, nuclear magnetic moments (NMagM)
  in nuclear magnetons)

  Atom         1           2           3           4           5           6           7
 IAtWgt=          12          12          16          16           1           1           1
 AtmWgt=  12.0000000  12.0000000  15.9949146  15.9949146   1.0078250   1.0078250   1.0078250
 NucSpn=           0           0           0           0           1           1           1
 AtZEff=  -0.0000000  -0.0000000  -0.0000000  -0.0000000  -0.0000000  -0.0000000  -0.0000000
 NQMom=    0.0000000   0.0000000   0.0000000   0.0000000   0.0000000   0.0000000   0.0000000
 NMagM=    0.0000000   0.0000000   0.0000000   0.0000000   2.7928460   2.7928460   2.7928460
 AtZNuc=   6.0000000   6.0000000   8.0000000   8.0000000   1.0000000   1.0000000   1.0000000
 Leave Link  101 at Tue Sep 30 16:58:50 2025, MaxMem=  4294967296 cpu:               5.1 elap:               0.3
 (Enter /software/sse/easybuild/prefix/software/Gaussian/16.C.01-avx2-nsc1/g16/l103.exe)

 GradGradGradGradGradGradGradGradGradGradGradGradGradGradGradGradGradGrad
 Berny optimization.
 Initialization pass.
                           ----------------------------
                           !    Initial Parameters    !
                           ! (Angstroms and Degrees)  !
 --------------------------                            --------------------------
 ! Name  Definition              Value          Derivative Info.                !
 --------------------------------------------------------------------------------
 ! R1    R(1,2)                  1.546          estimate D2E/DX2                !
 ! R2    R(1,5)                  1.084          estimate D2E/DX2                !
 ! R3    R(1,6)                  1.0876         estimate D2E/DX2                !
 ! R4    R(1,7)                  1.0839         estimate D2E/DX2                !
 ! R5    R(2,3)                  1.2324         estimate D2E/DX2                !
 ! R6    R(2,4)                  1.2324         estimate D2E/DX2                !
 ! A1    A(2,1,5)              111.0795         estimate D2E/DX2                !
 ! A2    A(2,1,6)              108.3149         estimate D2E/DX2                !
 ! A3    A(2,1,7)              111.0794         estimate D2E/DX2                !
 ! A4    A(5,1,6)              107.9118         estimate D2E/DX2                !
 ! A5    A(5,1,7)              110.412          estimate D2E/DX2                !
 ! A6    A(6,1,7)              107.9115         estimate D2E/DX2                !
 ! A7    A(1,2,3)              115.6454         estimate D2E/DX2                !
 ! A8    A(1,2,4)              115.6446         estimate D2E/DX2                !
 ! A9    A(3,2,4)              128.694          estimate D2E/DX2                !
 ! D1    D(5,1,2,3)            -28.9983         estimate D2E/DX2                !
 ! D2    D(5,1,2,4)            152.328          estimate D2E/DX2                !
 ! D3    D(6,1,2,3)             89.3471         estimate D2E/DX2                !
 ! D4    D(6,1,2,4)            -89.3266         estimate D2E/DX2                !
 ! D5    D(7,1,2,3)           -152.308          estimate D2E/DX2                !
 ! D6    D(7,1,2,4)             29.0183         estimate D2E/DX2                !
 --------------------------------------------------------------------------------
 Trust Radius=3.00D-01 FncErr=1.00D-07 GrdErr=1.00D-07 EigMax=2.50D+02 EigMin=1.00D-04
 Number of steps in this run=     31 maximum allowed number of steps=    100.
 GradGradGradGradGradGradGradGradGradGradGradGradGradGradGradGradGradGrad

 Leave Link  103 at Tue Sep 30 16:58:50 2025, MaxMem=  4294967296 cpu:               0.2 elap:               0.0
 (Enter /software/sse/easybuild/prefix/software/Gaussian/16.C.01-avx2-nsc1/g16/l202.exe)
                          Input orientation:                          
 ---------------------------------------------------------------------
 Center     Atomic      Atomic             Coordinates (Angstroms)
 Number     Number       Type             X           Y           Z
 ---------------------------------------------------------------------
      1          6           0       -1.336280   -0.000020   -0.005110
      2          6           0        0.209700    0.000000   -0.009570
      3          8           0        0.743120   -1.110890    0.001750
      4          8           0        0.743080    1.110920    0.001750
      5          1           0       -1.727510   -0.890260   -0.484030
      6          1           0       -1.675080    0.000160    1.028420
      7          1           0       -1.727530    0.890040   -0.484340
 ---------------------------------------------------------------------
                    Distance matrix (angstroms):
                    1          2          3          4          5
     1  C    0.000000
     2  C    1.545986   0.000000
     3  O    2.357538   1.232372   0.000000
     4  O    2.357535   1.232382   2.221810   0.000000
     5  H    1.083952   2.184138   2.527582   3.216290   0.000000
     6  H    1.087644   2.151701   2.852398   2.852251   1.755876
     7  H    1.083949   2.184133   3.216227   2.527644   1.780300
                    6          7
     6  H    0.000000
     7  H    1.755870   0.000000
 Stoichiometry    C2H3O2(1-)
 Framework group  C1[X(C2H3O2)]
 Deg. of freedom    15
 Full point group                 C1      NOp   1
 Largest Abelian subgroup         C1      NOp   1
 Largest concise Abelian subgroup C1      NOp   1
                         Standard orientation:                         
 ---------------------------------------------------------------------
 Center     Atomic      Atomic             Coordinates (Angstroms)
 Number     Number       Type             X           Y           Z
 ---------------------------------------------------------------------
      1          6           0        1.336280    0.000008   -0.005109
      2          6           0       -0.209700    0.000004   -0.009569
      3          8           0       -0.743108    1.110900    0.001751
      4          8           0       -0.743092   -1.110910    0.001751
      5          1           0        1.727520    0.890243   -0.484029
      6          1           0        1.675080   -0.000176    1.028421
      7          1           0        1.727521   -0.890057   -0.484339
 ---------------------------------------------------------------------
 Rotational constants (GHZ):          11.8589170          10.1961787           5.6719293
 Leave Link  202 at Tue Sep 30 16:58:50 2025, MaxMem=  4294967296 cpu:               0.1 elap:               0.0
 (Enter /software/sse/easybuild/prefix/software/Gaussian/16.C.01-avx2-nsc1/g16/l301.exe)
 Standard basis: Aug-CC-pVTZ (5D, 7F)
 Ernie: Thresh=  0.10000D-02 Tol=  0.10000D-05 Strict=F.
 Ernie:  12 primitive shells out of 153 were deleted.
 There are   295 symmetry adapted cartesian basis functions of A   symmetry.
 There are   253 symmetry adapted basis functions of A   symmetry.
   253 basis functions,   369 primitive gaussians,   295 cartesian basis functions
    16 alpha electrons       16 beta electrons
       nuclear repulsion energy       113.3470772653 Hartrees.
 IExCor=    0 DFT=F Ex=HF Corr=None ExCW=0 ScaHFX=  1.000000
 ScaDFX=  1.000000  1.000000  1.000000  1.000000 ScalE2=  1.000000  1.000000
 IRadAn=      5 IRanWt=     -1 IRanGd=            0 ICorTp=0 IEmpDi=  4
 NAtoms=    7 NActive=    7 NUniq=    7 SFac= 1.00D+00 NAtFMM=   60 NAOKFM=F Big=F
 Integral buffers will be    131072 words long.
 Raffenetti 1 integral format.
 Two-electron integral symmetry is turned on.
 Leave Link  301 at Tue Sep 30 16:58:51 2025, MaxMem=  4294967296 cpu:               0.8 elap:               0.1
 (Enter /software/sse/easybuild/prefix/software/Gaussian/16.C.01-avx2-nsc1/g16/l302.exe)
 NPDir=0 NMtPBC=     1 NCelOv=     1 NCel=       1 NClECP=     1 NCelD=      1
         NCelK=      1 NCelE2=     1 NClLst=     1 CellRange=     0.0.
 One-electron integrals computed using PRISM.
 One-electron integral symmetry used in STVInt
 NBasis=   253 RedAO= T EigKep=  3.38D-05  NBF=   253
 NBsUse=   253 1.00D-06 EigRej= -1.00D+00 NBFU=   253
 Leave Link  302 at Tue Sep 30 16:58:51 2025, MaxMem=  4294967296 cpu:               2.3 elap:               0.2
 (Enter /software/sse/easybuild/prefix/software/Gaussian/16.C.01-avx2-nsc1/g16/l303.exe)
 DipDrv:  MaxL=1.
 Leave Link  303 at Tue Sep 30 16:58:52 2025, MaxMem=  4294967296 cpu:               0.4 elap:               0.0
 (Enter /software/sse/easybuild/prefix/software/Gaussian/16.C.01-avx2-nsc1/g16/l401.exe)
 ExpMin= 2.53D-02 ExpMax= 1.53D+04 ExpMxC= 5.22D+02 IAcc=3 IRadAn=         5 AccDes= 0.00D+00
 Harris functional with IExCor=  205 and IRadAn=       5 diagonalized for initial guess.
 HarFok:  IExCor=  205 AccDes= 0.00D+00 IRadAn=         5 IDoV= 1 UseB2=F ITyADJ=14
 ICtDFT=  3500011 ScaDFX=  1.000000  1.000000  1.000000  1.000000
 FoFCou: FMM=F IPFlag=           0 FMFlag=      100000 FMFlg1=           0
         NFxFlg=           0 DoJE=T BraDBF=F KetDBF=T FulRan=T
         wScrn=  0.000000 ICntrl=       500 IOpCl=  0 I1Cent=   200000004 NGrid=           0
         NMat0=    1 NMatS0=      1 NMatT0=    0 NMatD0=    1 NMtDS0=    0 NMtDT0=    0
 Petite list used in FoFCou.
 Harris En= -227.763321623523    
 JPrj=0 DoOrth=F DoCkMO=F.
 Leave Link  401 at Tue Sep 30 16:58:53 2025, MaxMem=  4294967296 cpu:               4.4 elap:               0.3
 (Enter /software/sse/easybuild/prefix/software/Gaussian/16.C.01-avx2-nsc1/g16/l502.exe)
 Keep R1 ints in memory in canonical form, NReq=529185072.
 FoFCou: FMM=F IPFlag=           0 FMFlag=           0 FMFlg1=           0
         NFxFlg=           0 DoJE=F BraDBF=F KetDBF=F FulRan=T
         wScrn=  0.000000 ICntrl=       600 IOpCl=  0 I1Cent=           0 NGrid=           0
         NMat0=    1 NMatS0=  32131 NMatT0=    0 NMatD0=    1 NMtDS0=    0 NMtDT0=    0
 Symmetry not used in FoFCou.
 Two-electron integral symmetry not used.
 Closed shell SCF:
 Using DIIS extrapolation, IDIIS=  1040.
 NGot=  4294967296 LenX=  3778569230 LenY=  3778481764
 Requested convergence on RMS density matrix=1.00D-08 within 128 cycles.
 Requested convergence on MAX density matrix=1.00D-06.
 Requested convergence on             energy=1.00D-06.
 No special actions if energy rises.

 Cycle   1  Pass 1  IDiag  1:
 E= -227.043271167804    
 DIIS: error= 3.83D-02 at cycle   1 NSaved=   1.
 NSaved= 1 IEnMin= 1 EnMin= -227.043271167804     IErMin= 1 ErrMin= 3.83D-02
 ErrMax= 3.83D-02  0.00D+00 EMaxC= 1.00D-01 BMatC= 5.67D-01 BMatP= 5.67D-01
 IDIUse=3 WtCom= 6.17D-01 WtEn= 3.83D-01
 Coeff-Com:  0.100D+01
 Coeff-En:   0.100D+01
 Coeff:      0.100D+01
 Gap=     0.586 Goal=   None    Shift=    0.000
 GapD=    0.586 DampG=2.000 DampE=0.500 DampFc=1.0000 IDamp=-1.
 RMSDP=2.31D-03 MaxDP=6.67D-02              OVMax= 1.63D-01

 Cycle   2  Pass 1  IDiag  1:
 E= -227.264044548643     Delta-E=       -0.220773380839 Rises=F Damp=F
 DIIS: error= 1.78D-02 at cycle   2 NSaved=   2.
 NSaved= 2 IEnMin= 2 EnMin= -227.264044548643     IErMin= 2 ErrMin= 1.78D-02
 ErrMax= 1.78D-02  0.00D+00 EMaxC= 1.00D-01 BMatC= 9.96D-02 BMatP= 5.67D-01
 IDIUse=3 WtCom= 8.22D-01 WtEn= 1.78D-01
 Coeff-Com:  0.247D+00 0.753D+00
 Coeff-En:   0.000D+00 0.100D+01
 Coeff:      0.203D+00 0.797D+00
 Gap=     0.351 Goal=   None    Shift=    0.000
 RMSDP=1.18D-03 MaxDP=3.30D-02 DE=-2.21D-01 OVMax= 7.48D-02

 Cycle   3  Pass 1  IDiag  1:
 E= -227.325240079390     Delta-E=       -0.061195530747 Rises=F Damp=F
 DIIS: error= 6.34D-03 at cycle   3 NSaved=   3.
 NSaved= 3 IEnMin= 3 EnMin= -227.325240079390     IErMin= 3 ErrMin= 6.34D-03
 ErrMax= 6.34D-03  0.00D+00 EMaxC= 1.00D-01 BMatC= 8.93D-03 BMatP= 9.96D-02
 IDIUse=3 WtCom= 9.37D-01 WtEn= 6.34D-02
 Coeff-Com: -0.186D-01 0.201D+00 0.818D+00
 Coeff-En:   0.000D+00 0.000D+00 0.100D+01
 Coeff:     -0.174D-01 0.188D+00 0.829D+00
 Gap=     0.324 Goal=   None    Shift=    0.000
 RMSDP=1.95D-04 MaxDP=6.33D-03 DE=-6.12D-02 OVMax= 1.68D-02

 Cycle   4  Pass 1  IDiag  1:
 E= -227.330449708206     Delta-E=       -0.005209628816 Rises=F Damp=F
 DIIS: error= 1.44D-03 at cycle   4 NSaved=   4.
 NSaved= 4 IEnMin= 4 EnMin= -227.330449708206     IErMin= 4 ErrMin= 1.44D-03
 ErrMax= 1.44D-03  0.00D+00 EMaxC= 1.00D-01 BMatC= 3.00D-04 BMatP= 8.93D-03
 IDIUse=3 WtCom= 9.86D-01 WtEn= 1.44D-02
 Coeff-Com: -0.103D-01 0.375D-01 0.244D+00 0.729D+00
 Coeff-En:   0.000D+00 0.000D+00 0.000D+00 0.100D+01
 Coeff:     -0.102D-01 0.370D-01 0.240D+00 0.733D+00
 Gap=     0.321 Goal=   None    Shift=    0.000
 RMSDP=5.63D-05 MaxDP=1.88D-03 DE=-5.21D-03 OVMax= 4.96D-03

 Cycle   5  Pass 1  IDiag  1:
 E= -227.330730096000     Delta-E=       -0.000280387793 Rises=F Damp=F
 DIIS: error= 2.93D-04 at cycle   5 NSaved=   5.
 NSaved= 5 IEnMin= 5 EnMin= -227.330730096000     IErMin= 5 ErrMin= 2.93D-04
 ErrMax= 2.93D-04  0.00D+00 EMaxC= 1.00D-01 BMatC= 1.57D-05 BMatP= 3.00D-04
 IDIUse=3 WtCom= 9.97D-01 WtEn= 2.93D-03
 Coeff-Com:  0.274D-02-0.203D-01-0.107D+00-0.643D-01 0.119D+01
 Coeff-En:   0.000D+00 0.000D+00 0.000D+00 0.000D+00 0.100D+01
 Coeff:      0.273D-02-0.202D-01-0.107D+00-0.641D-01 0.119D+01
 Gap=     0.322 Goal=   None    Shift=    0.000
 RMSDP=4.24D-05 MaxDP=1.72D-03 DE=-2.80D-04 OVMax= 2.75D-03

 Cycle   6  Pass 1  IDiag  1:
 E= -227.330757442168     Delta-E=       -0.000027346168 Rises=F Damp=F
 DIIS: error= 5.40D-05 at cycle   6 NSaved=   6.
 NSaved= 6 IEnMin= 6 EnMin= -227.330757442168     IErMin= 6 ErrMin= 5.40D-05
 ErrMax= 5.40D-05  0.00D+00 EMaxC= 1.00D-01 BMatC= 5.14D-07 BMatP= 1.57D-05
 IDIUse=1 WtCom= 1.00D+00 WtEn= 0.00D+00
 Coeff-Com:  0.649D-03-0.286D-02-0.148D-01-0.338D-01 0.856D-02 0.104D+01
 Coeff:      0.649D-03-0.286D-02-0.148D-01-0.338D-01 0.856D-02 0.104D+01
 Gap=     0.321 Goal=   None    Shift=    0.000
 RMSDP=7.04D-06 MaxDP=2.76D-04 DE=-2.73D-05 OVMax= 6.55D-04

 Cycle   7  Pass 1  IDiag  1:
 E= -227.330758671176     Delta-E=       -0.000001229008 Rises=F Damp=F
 DIIS: error= 1.76D-05 at cycle   7 NSaved=   7.
 NSaved= 7 IEnMin= 7 EnMin= -227.330758671176     IErMin= 7 ErrMin= 1.76D-05
 ErrMax= 1.76D-05  0.00D+00 EMaxC= 1.00D-01 BMatC= 4.75D-08 BMatP= 5.14D-07
 IDIUse=1 WtCom= 1.00D+00 WtEn= 0.00D+00
 Coeff-Com: -0.179D-03 0.141D-02 0.772D-02 0.316D-02-0.980D-01 0.997D-01
 Coeff-Com:  0.986D+00
 Coeff:     -0.179D-03 0.141D-02 0.772D-02 0.316D-02-0.980D-01 0.997D-01
 Coeff:      0.986D+00
 Gap=     0.321 Goal=   None    Shift=    0.000
 RMSDP=1.50D-06 MaxDP=3.08D-05 DE=-1.23D-06 OVMax= 1.90D-04

 Cycle   8  Pass 1  IDiag  1:
 E= -227.330758763379     Delta-E=       -0.000000092204 Rises=F Damp=F
 DIIS: error= 4.10D-06 at cycle   8 NSaved=   8.
 NSaved= 8 IEnMin= 8 EnMin= -227.330758763379     IErMin= 8 ErrMin= 4.10D-06
 ErrMax= 4.10D-06  0.00D+00 EMaxC= 1.00D-01 BMatC= 2.91D-09 BMatP= 4.75D-08
 IDIUse=1 WtCom= 1.00D+00 WtEn= 0.00D+00
 Coeff-Com: -0.361D-04 0.183D-03 0.629D-03 0.219D-02 0.321D-02-0.741D-01
 Coeff-Com: -0.537D-01 0.112D+01
 Coeff:     -0.361D-04 0.183D-03 0.629D-03 0.219D-02 0.321D-02-0.741D-01
 Coeff:     -0.537D-01 0.112D+01
 Gap=     0.321 Goal=   None    Shift=    0.000
 RMSDP=6.26D-07 MaxDP=2.86D-05 DE=-9.22D-08 OVMax= 5.82D-05

 Cycle   9  Pass 1  IDiag  1:
 E= -227.330758770526     Delta-E=       -0.000000007147 Rises=F Damp=F
 DIIS: error= 8.01D-07 at cycle   9 NSaved=   9.
 NSaved= 9 IEnMin= 9 EnMin= -227.330758770526     IErMin= 9 ErrMin= 8.01D-07
 ErrMax= 8.01D-07  0.00D+00 EMaxC= 1.00D-01 BMatC= 1.90D-10 BMatP= 2.91D-09
 IDIUse=1 WtCom= 1.00D+00 WtEn= 0.00D+00
 Coeff-Com:  0.118D-04-0.867D-04-0.480D-03-0.353D-03 0.478D-02 0.440D-02
 Coeff-Com: -0.608D-01-0.108D+00 0.116D+01
 Coeff:      0.118D-04-0.867D-04-0.480D-03-0.353D-03 0.478D-02 0.440D-02
 Coeff:     -0.608D-01-0.108D+00 0.116D+01
 Gap=     0.321 Goal=   None    Shift=    0.000
 RMSDP=2.14D-07 MaxDP=9.95D-06 DE=-7.15D-09 OVMax= 1.73D-05

 Cycle  10  Pass 1  IDiag  1:
 E= -227.330758771134     Delta-E=       -0.000000000608 Rises=F Damp=F
 DIIS: error= 3.51D-07 at cycle  10 NSaved=  10.
 NSaved=10 IEnMin=10 EnMin= -227.330758771134     IErMin=10 ErrMin= 3.51D-07
 ErrMax= 3.51D-07  0.00D+00 EMaxC= 1.00D-01 BMatC= 2.01D-11 BMatP= 1.90D-10
 IDIUse=1 WtCom= 1.00D+00 WtEn= 0.00D+00
 Coeff-Com:  0.110D-06 0.610D-05 0.723D-04-0.778D-04-0.159D-02 0.589D-02
 Coeff-Com:  0.163D-01-0.553D-01-0.331D+00 0.137D+01
 Coeff:      0.110D-06 0.610D-05 0.723D-04-0.778D-04-0.159D-02 0.589D-02
 Coeff:      0.163D-01-0.553D-01-0.331D+00 0.137D+01
 Gap=     0.321 Goal=   None    Shift=    0.000
 RMSDP=5.92D-08 MaxDP=2.07D-06 DE=-6.08D-10 OVMax= 7.32D-06

 Cycle  11  Pass 1  IDiag  1:
 E= -227.330758771216     Delta-E=       -0.000000000082 Rises=F Damp=F
 DIIS: error= 9.54D-08 at cycle  11 NSaved=  11.
 NSaved=11 IEnMin=11 EnMin= -227.330758771216     IErMin=11 ErrMin= 9.54D-08
 ErrMax= 9.54D-08  0.00D+00 EMaxC= 1.00D-01 BMatC= 1.90D-12 BMatP= 2.01D-11
 IDIUse=1 WtCom= 1.00D+00 WtEn= 0.00D+00
 Coeff-Com: -0.949D-06 0.506D-05 0.117D-04 0.624D-04 0.222D-03-0.288D-02
 Coeff-Com: -0.313D-03 0.296D-01 0.267D-01-0.502D+00 0.145D+01
 Coeff:     -0.949D-06 0.506D-05 0.117D-04 0.624D-04 0.222D-03-0.288D-02
 Coeff:     -0.313D-03 0.296D-01 0.267D-01-0.502D+00 0.145D+01
 Gap=     0.321 Goal=   None    Shift=    0.000
 RMSDP=1.57D-08 MaxDP=4.27D-07 DE=-8.19D-11 OVMax= 2.73D-06

 Cycle  12  Pass 1  IDiag  1:
 E= -227.330758771224     Delta-E=       -0.000000000008 Rises=F Damp=F
 DIIS: error= 2.35D-08 at cycle  12 NSaved=  12.
 NSaved=12 IEnMin=12 EnMin= -227.330758771224     IErMin=12 ErrMin= 2.35D-08
 ErrMax= 2.35D-08  0.00D+00 EMaxC= 1.00D-01 BMatC= 2.36D-13 BMatP= 1.90D-12
 IDIUse=1 WtCom= 1.00D+00 WtEn= 0.00D+00
 Coeff-Com: -0.165D-06 0.300D-06-0.292D-05 0.144D-04 0.142D-03-0.823D-03
 Coeff-Com: -0.103D-02 0.815D-02 0.235D-01-0.153D+00 0.131D+00 0.992D+00
 Coeff:     -0.165D-06 0.300D-06-0.292D-05 0.144D-04 0.142D-03-0.823D-03
 Coeff:     -0.103D-02 0.815D-02 0.235D-01-0.153D+00 0.131D+00 0.992D+00
 Gap=     0.321 Goal=   None    Shift=    0.000
 RMSDP=4.80D-09 MaxDP=1.81D-07 DE=-7.79D-12 OVMax= 6.55D-07

 SCF Done:  E(RHF) =  -227.330758771     A.U. after   12 cycles
            NFock= 12  Conv=0.48D-08     -V/T= 2.0005
 KE= 2.272137535833D+02 PE=-7.710441880238D+02 EE= 2.031525984039D+02
 Leave Link  502 at Tue Sep 30 16:59:03 2025, MaxMem=  4294967296 cpu:              45.9 elap:               9.6
 (Enter /software/sse/easybuild/prefix/software/Gaussian/16.C.01-avx2-nsc1/g16/l601.exe)
 Copying SCF densities to generalized density rwf, IOpCl= 0 IROHF=0.
 SCF density gives NOpUse=  1 NOpAll=  1.

 **********************************************************************

            Population analysis using the SCF Density.

 **********************************************************************

 Orbital symmetries:
 BldTbl:  Degeneracy threshold= 1.00D-02
       Occupied  (A) (A) (A) (A) (A) (A) (A) (A) (A) (A) (A) (A)
                 (A) (A) (A) (A)
       Virtual   (A) (A) (A) (A) (A) (A) (A) (A) (A) (A) (A) (A)
                 (A) (A) (A) (A) (A) (A) (A) (A) (A) (A) (A) (A)
                 (A) (A) (A) (A) (A) (A) (A) (A) (A) (A) (A) (A)
                 (A) (A) (A) (A) (A) (A) (A) (A) (A) (A) (A) (A)
                 (A) (A) (A) (A) (A) (A) (A) (A) (A) (A) (A) (A)
                 (A) (A) (A) (A) (A) (A) (A) (A) (A) (A) (A) (A)
                 (A) (A) (A) (A) (A) (A) (A) (A) (A) (A) (A) (A)
                 (A) (A) (A) (A) (A) (A) (A) (A) (A) (A) (A) (A)
                 (A) (A) (A) (A) (A) (A) (A) (A) (A) (A) (A) (A)
                 (A) (A) (A) (A) (A) (A) (A) (A) (A) (A) (A) (A)
                 (A) (A) (A) (A) (A) (A) (A) (A) (A) (A) (A) (A)
                 (A) (A) (A) (A) (A) (A) (A) (A) (A) (A) (A) (A)
                 (A) (A) (A) (A) (A) (A) (A) (A) (A) (A) (A) (A)
                 (A) (A) (A) (A) (A) (A) (A) (A) (A) (A) (A) (A)
                 (A) (A) (A) (A) (A) (A) (A) (A) (A) (A) (A) (A)
                 (A) (A) (A) (A) (A) (A) (A) (A) (A) (A) (A) (A)
                 (A) (A) (A) (A) (A) (A) (A) (A) (A) (A) (A) (A)
                 (A) (A) (A) (A) (A) (A) (A) (A) (A) (A) (A) (A)
                 (A) (A) (A) (A) (A) (A) (A) (A) (A) (A) (A) (A)
                 (A) (A) (A) (A) (A) (A) (A) (A) (A)
 The electronic state is 1-A.
 Alpha  occ. eigenvalues --  -20.27989 -20.27986 -11.11936 -11.03662  -1.17374
 Alpha  occ. eigenvalues --   -1.06883  -0.79020  -0.50672  -0.41907  -0.41601
 Alpha  occ. eigenvalues --   -0.41218  -0.36180  -0.32133  -0.19988  -0.18904
 Alpha  occ. eigenvalues --   -0.18810
 Alpha virt. eigenvalues --    0.13328   0.14394   0.14536   0.18516   0.22077
 Alpha virt. eigenvalues --    0.22910   0.22940   0.24953   0.25211   0.26787
 Alpha virt. eigenvalues --    0.30881   0.32946   0.33258   0.35895   0.36270
 Alpha virt. eigenvalues --    0.37022   0.38798   0.39585   0.41434   0.42293
 Alpha virt. eigenvalues --    0.43161   0.46188   0.47194   0.49153   0.49158
 Alpha virt. eigenvalues --    0.49974   0.51114   0.51420   0.53963   0.54346
 Alpha virt. eigenvalues --    0.55762   0.58213   0.59157   0.59806   0.61445
 Alpha virt. eigenvalues --    0.63026   0.64091   0.66096   0.69720   0.70368
 Alpha virt. eigenvalues --    0.71537   0.73361   0.76126   0.80167   0.83582
 Alpha virt. eigenvalues --    0.88390   0.91504   0.93068   0.94470   0.95221
 Alpha virt. eigenvalues --    0.96053   0.97182   1.00336   1.00547   1.02861
 Alpha virt. eigenvalues --    1.04056   1.05484   1.06066   1.06680   1.07570
 Alpha virt. eigenvalues --    1.11872   1.11981   1.12300   1.13232   1.14676
 Alpha virt. eigenvalues --    1.16477   1.17525   1.21138   1.22277   1.23555
 Alpha virt. eigenvalues --    1.25143   1.25752   1.26435   1.29394   1.30766
 Alpha virt. eigenvalues --    1.32283   1.33802   1.36473   1.36751   1.39458
 Alpha virt. eigenvalues --    1.43037   1.44372   1.44540   1.48624   1.51178
 Alpha virt. eigenvalues --    1.55973   1.57258   1.60560   1.62282   1.63668
 Alpha virt. eigenvalues --    1.69188   1.69633   1.73739   1.74205   1.78440
 Alpha virt. eigenvalues --    1.81069   1.81162   1.84277   1.86388   1.87059
 Alpha virt. eigenvalues --    1.93099   1.94382   1.94531   1.95394   2.01564
 Alpha virt. eigenvalues --    2.01853   2.05508   2.07580   2.11899   2.12946
 Alpha virt. eigenvalues --    2.16288   2.21353   2.27724   2.29775   2.31439
 Alpha virt. eigenvalues --    2.35665   2.40281   2.40737   2.48350   2.52105
 Alpha virt. eigenvalues --    2.53408   2.55771   2.60329   2.68171   2.69199
 Alpha virt. eigenvalues --    2.72012   2.74081   2.76872   2.78902   2.81338
 Alpha virt. eigenvalues --    2.85379   2.86601   2.93276   2.95130   3.00634
 Alpha virt. eigenvalues --    3.01261   3.02898   3.05263   3.14662   3.17967
 Alpha virt. eigenvalues --    3.18801   3.19931   3.22790   3.30375   3.33373
 Alpha virt. eigenvalues --    3.35721   3.48066   3.56061   3.62285   3.63697
 Alpha virt. eigenvalues --    3.70309   3.73104   3.77482   3.79196   3.81084
 Alpha virt. eigenvalues --    3.83995   3.85677   3.95938   3.99786   4.01906
 Alpha virt. eigenvalues --    4.08215   4.09058   4.12920   4.15383   4.18296
 Alpha virt. eigenvalues --    4.25493   4.27014   4.31388   4.31688   4.35514
 Alpha virt. eigenvalues --    4.35601   4.40792   4.49517   4.50395   4.53189
 Alpha virt. eigenvalues --    4.61966   4.62422   4.70895   4.76611   4.80551
 Alpha virt. eigenvalues --    4.84266   4.85702   4.98065   5.00410   5.01918
 Alpha virt. eigenvalues --    5.06296   5.12426   5.20801   5.23630   5.26196
 Alpha virt. eigenvalues --    5.29437   5.38424   5.41170   5.47453   5.52751
 Alpha virt. eigenvalues --    5.60093   5.62626   5.77437   5.84007   5.87937
 Alpha virt. eigenvalues --    5.89567   6.13292   6.19757   6.33042   6.34744
 Alpha virt. eigenvalues --    6.37305   6.57456   6.85115   6.87174   6.89457
 Alpha virt. eigenvalues --    6.91622   6.92301   6.96367   7.14497   7.15154
 Alpha virt. eigenvalues --    7.15161   7.25168   7.33183   7.39349   7.47189
 Alpha virt. eigenvalues --    7.52999   7.58308   7.60013   7.62649   7.70607
 Alpha virt. eigenvalues --    7.83010   7.86915   7.91726   7.97351   8.04243
 Alpha virt. eigenvalues --    8.14952   8.20173   8.26620  15.14686  15.84399
 Alpha virt. eigenvalues --   17.21166  18.77249
          Condensed to atoms (all electrons):
               1          2          3          4          5          6
     1  C    5.624891   0.105455  -0.127837  -0.127851   0.396787   0.379729
     2  C    0.105455   4.623292   0.415826   0.415836  -0.010251   0.009864
     3  O   -0.127837   0.415826   8.604585  -0.131714   0.011648   0.013158
     4  O   -0.127851   0.415836  -0.131714   8.604599  -0.005904   0.013167
     5  H    0.396787  -0.010251   0.011648  -0.005904   0.321467   0.010942
     6  H    0.379729   0.009864   0.013158   0.013167   0.010942   0.341611
     7  H    0.396795  -0.010244  -0.005906   0.011649   0.006946   0.010946
               7
     1  C    0.396795
     2  C   -0.010244
     3  O   -0.005906
     4  O    0.011649
     5  H    0.006946
     6  H    0.010946
     7  H    0.321469
 Mulliken charges:
               1
     1  C   -0.647969
     2  C    0.450221
     3  O   -0.779760
     4  O   -0.779782
     5  H    0.268364
     6  H    0.220582
     7  H    0.268344
 Sum of Mulliken charges =  -1.00000
 Mulliken charges with hydrogens summed into heavy atoms:
               1
     1  C    0.109321
     2  C    0.450221
     3  O   -0.779760
     4  O   -0.779782
 DipInt: DoE/N= T F RetVal/Mat= T F Init=T NMatP=  1 IDeriv=0 Min/MaxMlt=  0  4
 Entering OneElI...
 OneElI was handed  4294742973 working-precision words.
 Multipole integrals L=0 to 4 MinM= 0 MaxM= 0.
 Requested accuracy = 0.1000D-12
 ShPair: Thresh= 1.00D-13 NBox=     0 BxSize= 0.00D+00 RnKept= 6.08D+00
         NSMCal=                 3486 NSMKep=                3481
 PrmmSu-InSpLW:  IPartL=    0 NPrtUS=    1 NPrtUL=    1 DoSpLW=F IThBeg=    0 IThEnd=    0 NThAct=    1.
 PrSmSu:  IncTry=   512 NBBP=           3481 NTPThr=   100 NPartT=    1 Incr=          34 LDynOK=F GPUOK=F.
 PrsmSu:  NPrtUS=   1 ThrOK=F IAlg=2 LenDen=           0 ISkipM=0 DoSpLW=F IThBeg=    0 IThEnd=    0.
 Prism:   IPart=     0 DynPar=F LinDyn=F Incr=          34.
 PRISM was handed  4294480254 working-precision words and  3481 shell-pairs
 IPart=  0 NShTot=        3481 NBatch=          66 AvBLen=        52.7
 PrsmSu-ThDecC:  IPartSL=    0    0 NPrtUSL=    1    1 IThBeg=    0 IThEnd=    0 CPU=   -1 GPU=   -1 NThAct=    1.
 PrSmSu:  NxtVal=             35.
 Electronic moments (au):
        -32.00000000          1.58506025          0.00003930         -0.00669126
       -125.90873129       -102.86583353        -24.29732509         -0.00004505
          0.03609225         -0.00000423       -158.61568015         -0.00008677
         -5.25032053         89.27359192         -0.00222243          0.26548517
        -18.57663819          0.00251929          4.23854649         -0.00007082
      -1155.26946355       -717.19511088       -104.75889020         -0.00123854
          2.97710360         -0.00963765          0.00004879        -16.20491693
          0.00017698       -350.57416213       -150.55235221        -81.12409929
         -0.00040733         14.83194743          0.00749181
 Electronic spatial extent (au):  <R**2>=            253.0719
 DipInt: DoE/N= F T RetVal/Mat= T F Init=T NMatP=  1 IDeriv=0 Min/MaxMlt=  0  4
 Nuclear    moments (au):
         31.00000000         -0.00000000          0.00000000          0.00000000
        102.08751376         76.17257257          5.45399144         -0.00000000
          0.00025375          0.00001373        153.23474120          0.00094737
          5.80818692        -80.54416233          0.00212184         -0.31095185
         17.42207392         -0.00276317         -4.94469808          0.00011620
        633.88796081        326.77179167         15.66698356          0.00041694
         -3.09679721          0.01038754          0.00003688         18.23379175
         -0.00023624        199.35891166         55.69322789          4.73852933
          0.00059889        -17.23147787         -0.00889876
 Total      moments (au):
         -1.00000000          1.58506025          0.00003930         -0.00669126
        -23.82121753        -26.69326096        -18.84333365         -0.00004505
          0.03634600          0.00000950         -5.38093895          0.00086059
          0.55786639          8.72942959         -0.00010060         -0.04546668
         -1.15456427         -0.00024388         -0.70615159          0.00004538
       -521.38150273       -390.42331921        -89.09190665         -0.00082159
         -0.11969361          0.00074989          0.00008567          2.02887482
         -0.00005926       -151.21525047        -94.85912432        -76.38556996
          0.00019155         -2.39953043         -0.00140695
 Traceless Quadrup. (au):
         -0.70194682         -3.57399024          4.27593706         -0.00004505
          0.03634600          0.00000950
 Charge=             -1.0000 electrons
 Dipole moment (field-independent basis, Debye):
    X=              4.0288    Y=              0.0001    Z=             -0.0170  Tot=              4.0289
 Quadrupole moment (field-independent basis, Debye-Ang):
   XX=            -32.0404   YY=            -35.9034   ZZ=            -25.3449
   XY=             -0.0001   XZ=              0.0489   YZ=              0.0000
 Traceless Quadrupole moment (field-independent basis, Debye-Ang):
   XX=             -0.9441   YY=             -4.8071   ZZ=              5.7513
   XY=             -0.0001   XZ=              0.0489   YZ=              0.0000
 Octapole moment (field-independent basis, Debye-Ang**2):
  XXX=             -3.8299  YYY=              0.0006  ZZZ=              0.3971  XYY=              6.2133
  XXY=             -0.0001  XXZ=             -0.0324  XZZ=             -0.8218  YZZ=             -0.0002
  YYZ=             -0.5026  XYZ=              0.0000
 Hexadecapole moment (field-independent basis, Debye-Ang**3):
 XXXX=           -196.3773 YYYY=           -147.0521 ZZZZ=            -33.5563 XXXY=             -0.0003
 XXXZ=             -0.0451 YYYX=              0.0003 YYYZ=              0.0000 ZZZX=              0.7642
 ZZZY=             -0.0000 XXYY=            -56.9549 XXZZ=            -35.7285 YYZZ=            -28.7705
 XXYZ=              0.0001 YYXZ=             -0.9038 ZZXY=             -0.0005
 N-N= 1.133470772653D+02 E-N=-7.710441876788D+02  KE= 2.272137535833D+02
 SetAtRh:  ITypeU=  23 NETotI=      -1 ICharg=  0 NETot=      31.
 StAtR1:  I=    1 I1=    1 IA=  6 C=   6.0 OKShel=TTT
                                                  SSP
                                                  222
 StAtR1:  I=    2 I1=    2 IA=  6 C=   6.0 OKShel=TTT
                                                  SSP
                                                  222
 StAtR1:  I=    3 I1=    3 IA=  8 C=   8.0 OKShel=TTT
                                                  SSP
                                                  224
 StAtR1:  I=    4 I1=    4 IA=  8 C=   8.0 OKShel=TTT
                                                  SSP
                                                  224
 StAtR1:  I=    5 I1=    5 IA=  1 C=   1.0 OKShel=T
                                                  S
                                                  1
 StAtR1:  I=    6 I1=    6 IA=  1 C=   1.0 OKShel=T
                                                  S
                                                  1
 StAtR1:  I=    7 I1=    7 IA=  1 C=   1.0 OKShel=T
                                                  S
                                                  1
          I=    1 IA=  6 I1=    1 NAtG=23 NE=   6.000 C=   6.000 Err= 1.75D-11
          I=    2 IA=  6 I1=    2 NAtG=23 NE=   6.000 C=   6.000 Err= 1.75D-11
          I=    3 IA=  8 I1=    3 NAtG=23 NE=   8.000 C=   8.000 Err=-3.68D-11
          I=    4 IA=  8 I1=    4 NAtG=23 NE=   8.000 C=   8.000 Err=-3.68D-11
          I=    5 IA=  1 I1=    5 NAtG=20 NE=   1.000 C=   1.000 Err= 2.80D-12
          I=    6 IA=  1 I1=    6 NAtG=20 NE=   1.000 C=   1.000 Err= 2.80D-12
          I=    7 IA=  1 I1=    7 NAtG=20 NE=   1.000 C=   1.000 Err= 2.80D-12
 Pruned (  99, 590) grid will be used in numerical quadrature.
 IPart=  0 IRanGd=          0 ScrnBf=T ScrnGd=T RCrit=4.00D+00 DoMicB=T.
 CutRad = 1000.00    CtRdIn =    0.00    XCrit =  15.00   ICut = 0
 Pruned (  99, 590) grid will be used in numerical quadrature.
 Pruned (  99, 590) grid will be used in numerical quadrature.
 IPart=  1 IRanGd=          0 ScrnBf=T ScrnGd=T RCrit=4.00D+00 DoMicB=T.
 CutRad = 1000.00    CtRdIn =    0.00    XCrit =  15.00   ICut = 0
 Pruned (  99, 590) grid will be used in numerical quadrature.
 IPart=  0 Atom number   1 atomic number  6 has       23114 grid points.
 Pruned (  99, 590) grid will be used in numerical quadrature.
 IPart=  9 IRanGd=          0 ScrnBf=T ScrnGd=T RCrit=4.00D+00 DoMicB=T.
 IPart=  5 IRanGd=          0 ScrnBf=T ScrnGd=T RCrit=4.00D+00 DoMicB=T.
 CutRad = 1000.00    CtRdIn =    0.00    XCrit =  15.00   ICut = 0
 IPart=  0 Atom   1 batch    1 overlaps    7 atoms,    81 shells and     7 DB shells.   NGrid=      2408
 CutRad = 1000.00    CtRdIn =    0.00    XCrit =  15.00   ICut = 0
 Pruned (  99, 590) grid will be used in numerical quadrature.
 Pruned (  99, 590) grid will be used in numerical quadrature.
 IPart=  7 IRanGd=          0 ScrnBf=T ScrnGd=T RCrit=4.00D+00 DoMicB=T.
 CutRad = 1000.00    CtRdIn =    0.00    XCrit =  15.00   ICut = 0
 Pruned (  99, 590) grid will be used in numerical quadrature.
 Symmetry reduced    86 angular points to    86 for atom    1.
 Pruned (  99, 590) grid will be used in numerical quadrature.
 IPart=  6 IRanGd=          0 ScrnBf=T ScrnGd=T RCrit=4.00D+00 DoMicB=T.
 CutRad = 1000.00    CtRdIn =    0.00    XCrit =  15.00   ICut = 0
 Pruned (  99, 590) grid will be used in numerical quadrature.
 IPart=  3 IRanGd=          0 ScrnBf=T ScrnGd=T RCrit=4.00D+00 DoMicB=T.
 Pruned (  99, 590) grid will be used in numerical quadrature.
 IPart= 14 IRanGd=          0 ScrnBf=T ScrnGd=T RCrit=4.00D+00 DoMicB=T.
 Pruned (  99, 590) grid will be used in numerical quadrature.
 Pruned (  99, 590) grid will be used in numerical quadrature.
 Pruned (  99, 590) grid will be used in numerical quadrature.
 IPart=  4 IRanGd=          0 ScrnBf=T ScrnGd=T RCrit=4.00D+00 DoMicB=T.
 Pruned (  99, 590) grid will be used in numerical quadrature.
 CutRad = 1000.00    CtRdIn =    0.00    XCrit =  15.00   ICut = 0
 Pruned (  99, 590) grid will be used in numerical quadrature.
 CutRad = 1000.00    CtRdIn =    0.00    XCrit =  15.00   ICut = 0
 Pruned (  99, 590) grid will be used in numerical quadrature.
 IPart= 12 IRanGd=          0 ScrnBf=T ScrnGd=T RCrit=4.00D+00 DoMicB=T.
 IPart=  2 IRanGd=          0 ScrnBf=T ScrnGd=T RCrit=4.00D+00 DoMicB=T.
 IPart= 11 IRanGd=          0 ScrnBf=T ScrnGd=T RCrit=4.00D+00 DoMicB=T.
 IPart= 10 IRanGd=          0 ScrnBf=T ScrnGd=T RCrit=4.00D+00 DoMicB=T.
 CutRad = 1000.00    CtRdIn =    0.00    XCrit =  15.00   ICut = 0
 CutRad = 1000.00    CtRdIn =    0.00    XCrit =  15.00   ICut = 0
 IPart= 15 IRanGd=          0 ScrnBf=T ScrnGd=T RCrit=4.00D+00 DoMicB=T.
 IPart=  8 IRanGd=          0 ScrnBf=T ScrnGd=T RCrit=4.00D+00 DoMicB=T.
 CutRad = 1000.00    CtRdIn =    0.00    XCrit =  15.00   ICut = 0
 Pruned (  99, 590) grid will be used in numerical quadrature.
 CutRad = 1000.00    CtRdIn =    0.00    XCrit =  15.00   ICut = 0
 IPart=  1 Atom number   1 atomic number  6 has       23114 grid points.
 Pruned (  99, 590) grid will be used in numerical quadrature.
 IPart=  1 Atom   1 batch    2 overlaps    7 atoms,    81 shells and     7 DB shells.   NGrid=      2522
 IPart=  9 Atom number   1 atomic number  6 has       23114 grid points.
 CutRad = 1000.00    CtRdIn =    0.00    XCrit =  15.00   ICut = 0
 IPart=  9 Atom   1 batch    4 overlaps    7 atoms,    81 shells and     7 DB shells.   NGrid=      1180
 Symmetry reduced   194 angular points to   194 for atom    1.
 CutRad = 1000.00    CtRdIn =    0.00    XCrit =  15.00   ICut = 0
 IPart= 13 IRanGd=          0 ScrnBf=T ScrnGd=T RCrit=4.00D+00 DoMicB=T.
 Symmetry reduced   590 angular points to   590 for atom    1.
 CutRad = 1000.00    CtRdIn =    0.00    XCrit =  15.00   ICut = 0
 Pruned (  99, 590) grid will be used in numerical quadrature.
 Pruned (  99, 590) grid will be used in numerical quadrature.
 IPart=  7 Atom number   1 atomic number  6 has       23114 grid points.
 IPart=  5 Atom number   1 atomic number  6 has       23114 grid points.
 IPart=  7 Atom   1 batch    5 overlaps    7 atoms,    81 shells and     7 DB shells.   NGrid=      1180
 IPart=  5 Atom   1 batch    3 overlaps    7 atoms,    81 shells and     7 DB shells.   NGrid=      2114
 Pruned (  99, 590) grid will be used in numerical quadrature.
 Symmetry reduced   302 angular points to   302 for atom    1.
 IPart=  6 Atom number   1 atomic number  6 has       23114 grid points.
 Symmetry reduced   590 angular points to   590 for atom    1.
 CutRad = 1000.00    CtRdIn =    0.00    XCrit =  15.00   ICut = 0
 IPart=  6 Atom   1 batch    6 overlaps    7 atoms,    81 shells and     7 DB shells.   NGrid=      1180
 Symmetry reduced   590 angular points to   590 for atom    1.
 Pruned (  99, 590) grid will be used in numerical quadrature.
 IPart=  4 Atom number   1 atomic number  6 has       23114 grid points.
 Pruned (  99, 590) grid will be used in numerical quadrature.
 IPart=  4 Atom   1 batch    7 overlaps    7 atoms,    83 shells and     7 DB shells.   NGrid=      1180
 IPart= 14 Atom number   1 atomic number  6 has       23114 grid points.
 Symmetry reduced   590 angular points to   590 for atom    1.
 IPart= 14 Atom   1 batch    8 overlaps    7 atoms,    83 shells and     7 DB shells.   NGrid=      1180
 Symmetry reduced   590 angular points to   590 for atom    1.
 Pruned (  99, 590) grid will be used in numerical quadrature.
 IPart=  3 Atom number   1 atomic number  6 has       23114 grid points.
 Pruned (  99, 590) grid will be used in numerical quadrature.
 IPart=  3 Atom   1 batch    9 overlaps    7 atoms,    83 shells and     7 DB shells.   NGrid=      1180
 IPart= 12 Atom number   1 atomic number  6 has       23114 grid points.
 Pruned (  99, 590) grid will be used in numerical quadrature.
 IPart= 12 Atom   1 batch   10 overlaps    7 atoms,    83 shells and     7 DB shells.   NGrid=      1180
 Symmetry reduced   590 angular points to   590 for atom    1.
 Pruned (  99, 590) grid will be used in numerical quadrature.
 IPart= 11 Atom number   1 atomic number  6 has       23114 grid points.
 IPart= 15 Atom number   1 atomic number  6 has       23114 grid points.
 IPart= 11 Atom   1 batch   11 overlaps    7 atoms,    82 shells and     7 DB shells.   NGrid=      1180
 IPart= 15 Atom   1 batch   12 overlaps    7 atoms,    82 shells and     7 DB shells.   NGrid=       590
 Pruned (  99, 590) grid will be used in numerical quadrature.
 Symmetry reduced   590 angular points to   590 for atom    1.
 IPart=  2 Atom number   1 atomic number  6 has       23114 grid points.
 Pruned (  99, 590) grid will be used in numerical quadrature.
 IPart=  2 Atom   1 batch   13 overlaps    7 atoms,    82 shells and     7 DB shells.   NGrid=       604
 IPart=  8 Atom number   1 atomic number  6 has       23114 grid points.
 Pruned (  99, 590) grid will be used in numerical quadrature.
 Symmetry reduced   302 angular points to   302 for atom    1.
 Symmetry reduced   590 angular points to   590 for atom    1.
 IPart= 13 Atom number   1 atomic number  6 has       23114 grid points.
 IPart=  8 Atom   1 batch   14 overlaps    7 atoms,    82 shells and     7 DB shells.   NGrid=       604
 IPart= 13 Atom   1 batch   15 overlaps    7 atoms,    78 shells and     7 DB shells.   NGrid=       604
 Symmetry reduced   302 angular points to   302 for atom    1.
 Symmetry reduced   302 angular points to   302 for atom    1.
 Symmetry reduced   590 angular points to   590 for atom    1.
 Pruned (  99, 590) grid will be used in numerical quadrature.
 IPart= 10 Atom number   1 atomic number  6 has       23114 grid points.
 IPart= 10 Atom   1 batch   16 overlaps    7 atoms,    69 shells and     7 DB shells.   NGrid=       604
 Symmetry reduced   302 angular points to   302 for atom    1.
 IPart= 10 Atom   1 batch   17 overlaps    7 atoms,    57 shells and     7 DB shells.   NGrid=       604
 IPart= 13 Atom   1 batch   18 overlaps    7 atoms,    44 shells and     7 DB shells.   NGrid=       604
 IPart=  8 Atom   1 batch   19 overlaps    7 atoms,    30 shells and     7 DB shells.   NGrid=       604
 IPart= 15 Atom   1 batch   20 overlaps    7 atoms,    20 shells and     1 DB shells.   NGrid=       604
 Symmetry reduced   302 angular points to   302 for atom    1.
 IPart=  8 Atom   1 batch   21 overlaps    7 atoms,    11 shells and     0 DB shells.   NGrid=       604
 IPart= 13 Atom   1 batch   22 overlaps    7 atoms,     3 shells and     0 DB shells.   NGrid=       604
 Pruned (  99, 590) grid will be used in numerical quadrature.
 IPart= 15 Atom number   2 atomic number  6 has       23114 grid points.
 IPart= 15 Atom   2 batch    1 overlaps    7 atoms,    83 shells and     7 DB shells.   NGrid=      2408
 Symmetry reduced    86 angular points to    86 for atom    2.
 Pruned (  99, 590) grid will be used in numerical quadrature.
 IPart= 10 Atom number   2 atomic number  6 has       23114 grid points.
 IPart= 10 Atom   2 batch    2 overlaps    7 atoms,    83 shells and     7 DB shells.   NGrid=      2522
 Pruned (  99, 590) grid will be used in numerical quadrature.
 Symmetry reduced   194 angular points to   194 for atom    2.
 IPart=  2 Atom number   2 atomic number  6 has       23114 grid points.
 IPart=  2 Atom   2 batch    3 overlaps    7 atoms,    83 shells and     7 DB shells.   NGrid=      2114
 Symmetry reduced   302 angular points to   302 for atom    2.
 Pruned (  99, 590) grid will be used in numerical quadrature.
 Pruned (  99, 590) grid will be used in numerical quadrature.
 IPart= 13 Atom number   2 atomic number  6 has       23114 grid points.
 IPart=  8 Atom number   2 atomic number  6 has       23114 grid points.
 IPart= 13 Atom   2 batch    4 overlaps    7 atoms,    83 shells and     7 DB shells.   NGrid=      1180
 IPart=  8 Atom   2 batch    5 overlaps    7 atoms,    83 shells and     7 DB shells.   NGrid=      1180
 Symmetry reduced   590 angular points to   590 for atom    2.
 Symmetry reduced   590 angular points to   590 for atom    2.
 Pruned (  99, 590) grid will be used in numerical quadrature.
 IPart= 11 Atom number   2 atomic number  6 has       23114 grid points.
 IPart= 11 Atom   2 batch    6 overlaps    7 atoms,    83 shells and     7 DB shells.   NGrid=      1180
 Symmetry reduced   590 angular points to   590 for atom    2.
 Pruned (  99, 590) grid will be used in numerical quadrature.
 IPart= 12 Atom number   2 atomic number  6 has       23114 grid points.
 IPart= 12 Atom   2 batch    7 overlaps    7 atoms,    83 shells and     7 DB shells.   NGrid=      1180
 Symmetry reduced   590 angular points to   590 for atom    2.
 Pruned (  99, 590) grid will be used in numerical quadrature.
 IPart=  3 Atom number   2 atomic number  6 has       23114 grid points.
 IPart=  3 Atom   2 batch    8 overlaps    7 atoms,    83 shells and     7 DB shells.   NGrid=      1180
 Symmetry reduced   590 angular points to   590 for atom    2.
 Pruned (  99, 590) grid will be used in numerical quadrature.
 Pruned (  99, 590) grid will be used in numerical quadrature.
 IPart= 14 Atom number   2 atomic number  6 has       23114 grid points.
 IPart=  7 Atom number   2 atomic number  6 has       23114 grid points.
 IPart= 14 Atom   2 batch    9 overlaps    7 atoms,    83 shells and     7 DB shells.   NGrid=      1180
 IPart=  7 Atom   2 batch   10 overlaps    7 atoms,    83 shells and     7 DB shells.   NGrid=      1180
 Symmetry reduced   590 angular points to   590 for atom    2.
 Symmetry reduced   590 angular points to   590 for atom    2.
 Pruned (  99, 590) grid will be used in numerical quadrature.
 IPart=  6 Atom number   2 atomic number  6 has       23114 grid points.
 IPart=  6 Atom   2 batch   11 overlaps    7 atoms,    82 shells and     7 DB shells.   NGrid=      1180
 Symmetry reduced   590 angular points to   590 for atom    2.
 Pruned (  99, 590) grid will be used in numerical quadrature.
 IPart=  4 Atom number   2 atomic number  6 has       23114 grid points.
 IPart=  4 Atom   2 batch   12 overlaps    7 atoms,    82 shells and     7 DB shells.   NGrid=       590
 Pruned (  99, 590) grid will be used in numerical quadrature.
 Symmetry reduced   590 angular points to   590 for atom    2.
 IPart=  9 Atom number   2 atomic number  6 has       23114 grid points.
 IPart=  9 Atom   2 batch   13 overlaps    7 atoms,    82 shells and     7 DB shells.   NGrid=       604
 Symmetry reduced   302 angular points to   302 for atom    2.
 IPart=  4 Atom   2 batch   14 overlaps    7 atoms,    80 shells and     7 DB shells.   NGrid=       604
 Symmetry reduced   302 angular points to   302 for atom    2.
 IPart=  9 Atom   2 batch   15 overlaps    7 atoms,    76 shells and     7 DB shells.   NGrid=       604
 IPart= 13 Atom   2 batch   16 overlaps    7 atoms,    67 shells and     7 DB shells.   NGrid=       604
 Symmetry reduced   302 angular points to   302 for atom    2.
 Pruned (  99, 590) grid will be used in numerical quadrature.
 IPart=  0 Atom number   2 atomic number  6 has       23114 grid points.
 IPart=  0 Atom   2 batch   17 overlaps    7 atoms,    56 shells and     7 DB shells.   NGrid=       604
 Symmetry reduced   302 angular points to   302 for atom    2.
 IPart=  8 Atom   2 batch   18 overlaps    7 atoms,    43 shells and     7 DB shells.   NGrid=       604
 Symmetry reduced   302 angular points to   302 for atom    2.
 Pruned (  99, 590) grid will be used in numerical quadrature.
 IPart=  5 Atom number   2 atomic number  6 has       23114 grid points.
 IPart=  5 Atom   2 batch   19 overlaps    7 atoms,    31 shells and     7 DB shells.   NGrid=       604
 Symmetry reduced   302 angular points to   302 for atom    2.
 IPart=  5 Atom   2 batch   20 overlaps    7 atoms,    20 shells and     4 DB shells.   NGrid=       604
 IPart=  8 Atom   2 batch   21 overlaps    7 atoms,     9 shells and     0 DB shells.   NGrid=       604
 IPart=  5 Atom   2 batch   22 overlaps    7 atoms,     3 shells and     0 DB shells.   NGrid=       604
 Pruned (  99, 590) grid will be used in numerical quadrature.
 IPart=  8 Atom number   3 atomic number  8 has       23718 grid points.
 IPart=  8 Atom   3 batch    1 overlaps    7 atoms,    79 shells and     7 DB shells.   NGrid=      2408
 Symmetry reduced    86 angular points to    86 for atom    3.
 Pruned (  99, 590) grid will be used in numerical quadrature.
 IPart=  5 Atom number   3 atomic number  8 has       23718 grid points.
 IPart=  5 Atom   3 batch    2 overlaps    7 atoms,    80 shells and     7 DB shells.   NGrid=      2522
 Symmetry reduced   194 angular points to   194 for atom    3.
 Pruned (  99, 590) grid will be used in numerical quadrature.
 IPart= 11 Atom number   3 atomic number  8 has       23718 grid points.
 Pruned (  99, 590) grid will be used in numerical quadrature.
 IPart= 11 Atom   3 batch    3 overlaps    7 atoms,    81 shells and     7 DB shells.   NGrid=      2114
 IPart=  0 Atom number   3 atomic number  8 has       23718 grid points.
 Symmetry reduced   302 angular points to   302 for atom    3.
 IPart=  0 Atom   3 batch    4 overlaps    7 atoms,    81 shells and     7 DB shells.   NGrid=      1180
 Symmetry reduced   590 angular points to   590 for atom    3.
 Pruned (  99, 590) grid will be used in numerical quadrature.
 IPart=  6 Atom number   3 atomic number  8 has       23718 grid points.
 IPart=  6 Atom   3 batch    5 overlaps    7 atoms,    82 shells and     7 DB shells.   NGrid=      1180
 Symmetry reduced   590 angular points to   590 for atom    3.
 Pruned (  99, 590) grid will be used in numerical quadrature.
 IPart=  1 Atom number   2 atomic number  6 has       23114 grid points.
 Pruned (  99, 590) grid will be used in numerical quadrature.
 IPart=  1 Atom number   3 atomic number  8 has       23718 grid points.
 IPart=  1 Atom   3 batch    6 overlaps    7 atoms,    82 shells and     7 DB shells.   NGrid=      1180
 Symmetry reduced   590 angular points to   590 for atom    3.
 Pruned (  99, 590) grid will be used in numerical quadrature.
 IPart=  9 Atom number   3 atomic number  8 has       23718 grid points.
 IPart=  9 Atom   3 batch    7 overlaps    7 atoms,    82 shells and     7 DB shells.   NGrid=      1180
 Symmetry reduced   590 angular points to   590 for atom    3.
 Pruned (  99, 590) grid will be used in numerical quadrature.
 IPart= 13 Atom number   3 atomic number  8 has       23718 grid points.
 IPart= 13 Atom   3 batch    8 overlaps    7 atoms,    83 shells and     7 DB shells.   NGrid=      1180
 Symmetry reduced   590 angular points to   590 for atom    3.
 Pruned (  99, 590) grid will be used in numerical quadrature.
 IPart= 12 Atom number   3 atomic number  8 has       23718 grid points.
 IPart= 12 Atom   3 batch    9 overlaps    7 atoms,    83 shells and     7 DB shells.   NGrid=      1180
 Symmetry reduced   590 angular points to   590 for atom    3.
 Pruned (  99, 590) grid will be used in numerical quadrature.
 IPart=  4 Atom number   3 atomic number  8 has       23718 grid points.
 IPart=  4 Atom   3 batch   10 overlaps    7 atoms,    83 shells and     7 DB shells.   NGrid=      1180
 Symmetry reduced   590 angular points to   590 for atom    3.
 Pruned (  99, 590) grid will be used in numerical quadrature.
 IPart=  7 Atom number   3 atomic number  8 has       23718 grid points.
 IPart=  7 Atom   3 batch   11 overlaps    7 atoms,    83 shells and     7 DB shells.   NGrid=      1180
 Symmetry reduced   590 angular points to   590 for atom    3.
 Pruned (  99, 590) grid will be used in numerical quadrature.
 IPart=  3 Atom number   3 atomic number  8 has       23718 grid points.
 IPart=  3 Atom   3 batch   12 overlaps    7 atoms,    82 shells and     7 DB shells.   NGrid=       590
 Symmetry reduced   590 angular points to   590 for atom    3.
 Pruned (  99, 590) grid will be used in numerical quadrature.
 IPart= 14 Atom number   3 atomic number  8 has       23718 grid points.
 IPart= 14 Atom   3 batch   13 overlaps    7 atoms,    82 shells and     7 DB shells.   NGrid=       604
 Symmetry reduced   302 angular points to   302 for atom    3.
 Pruned (  99, 590) grid will be used in numerical quadrature.
 IPart=  2 Atom number   3 atomic number  8 has       23718 grid points.
 IPart=  2 Atom   3 batch   14 overlaps    7 atoms,    82 shells and     7 DB shells.   NGrid=       604
 Symmetry reduced   302 angular points to   302 for atom    3.
 Pruned (  99, 590) grid will be used in numerical quadrature.
 IPart= 15 Atom number   3 atomic number  8 has       23718 grid points.
 IPart= 15 Atom   3 batch   15 overlaps    7 atoms,    79 shells and     7 DB shells.   NGrid=       604
 Symmetry reduced   302 angular points to   302 for atom    3.
 IPart=  3 Atom   3 batch   16 overlaps    7 atoms,    77 shells and     7 DB shells.   NGrid=       604
 Symmetry reduced   302 angular points to   302 for atom    3.
 IPart= 14 Atom   3 batch   17 overlaps    7 atoms,    76 shells and     7 DB shells.   NGrid=       604
 Pruned (  99, 590) grid will be used in numerical quadrature.
 IPart= 10 Atom number   3 atomic number  8 has       23718 grid points.
 IPart= 10 Atom   3 batch   18 overlaps    7 atoms,    68 shells and     7 DB shells.   NGrid=       604
 Symmetry reduced   302 angular points to   302 for atom    3.
 IPart=  0 Atom   3 batch   19 overlaps    7 atoms,    57 shells and     7 DB shells.   NGrid=       604
 Symmetry reduced   302 angular points to   302 for atom    3.
 IPart=  6 Atom   3 batch   20 overlaps    7 atoms,    40 shells and     6 DB shells.   NGrid=       604
 Symmetry reduced   302 angular points to   302 for atom    3.
 IPart=  1 Atom   3 batch   21 overlaps    7 atoms,    24 shells and     5 DB shells.   NGrid=       604
 Symmetry reduced   302 angular points to   302 for atom    3.
 IPart=  9 Atom   3 batch   22 overlaps    7 atoms,    10 shells and     0 DB shells.   NGrid=       604
 Symmetry reduced   302 angular points to   302 for atom    3.
 IPart= 14 Atom   3 batch   23 overlaps    7 atoms,     4 shells and     0 DB shells.   NGrid=       604
 Pruned (  99, 590) grid will be used in numerical quadrature.
 IPart= 13 Atom number   4 atomic number  8 has       23718 grid points.
 IPart= 13 Atom   4 batch    1 overlaps    7 atoms,    79 shells and     7 DB shells.   NGrid=      2408
 Symmetry reduced    86 angular points to    86 for atom    4.
 Pruned (  99, 590) grid will be used in numerical quadrature.
 IPart=  2 Atom number   4 atomic number  8 has       23718 grid points.
 IPart=  2 Atom   4 batch    2 overlaps    7 atoms,    80 shells and     7 DB shells.   NGrid=      2522
 Symmetry reduced   194 angular points to   194 for atom    4.
 Pruned (  99, 590) grid will be used in numerical quadrature.
 IPart=  6 Atom number   4 atomic number  8 has       23718 grid points.
 IPart=  6 Atom   4 batch    3 overlaps    7 atoms,    81 shells and     7 DB shells.   NGrid=      2114
 Symmetry reduced   302 angular points to   302 for atom    4.
 Pruned (  99, 590) grid will be used in numerical quadrature.
 IPart= 14 Atom number   4 atomic number  8 has       23718 grid points.
 IPart= 14 Atom   4 batch    4 overlaps    7 atoms,    81 shells and     7 DB shells.   NGrid=      1180
 Pruned (  99, 590) grid will be used in numerical quadrature.
 Symmetry reduced   590 angular points to   590 for atom    4.
 IPart=  1 Atom number   4 atomic number  8 has       23718 grid points.
 Pruned (  99, 590) grid will be used in numerical quadrature.
 IPart=  1 Atom   4 batch    5 overlaps    7 atoms,    82 shells and     7 DB shells.   NGrid=      1180
 IPart= 12 Atom number   4 atomic number  8 has       23718 grid points.
 Symmetry reduced   590 angular points to   590 for atom    4.
 IPart= 12 Atom   4 batch    6 overlaps    7 atoms,    82 shells and     7 DB shells.   NGrid=      1180
 Symmetry reduced   590 angular points to   590 for atom    4.
 Pruned (  99, 590) grid will be used in numerical quadrature.
 IPart=  9 Atom number   4 atomic number  8 has       23718 grid points.
 IPart=  9 Atom   4 batch    7 overlaps    7 atoms,    82 shells and     7 DB shells.   NGrid=      1180
 Symmetry reduced   590 angular points to   590 for atom    4.
 Pruned (  99, 590) grid will be used in numerical quadrature.
 Pruned (  99, 590) grid will be used in numerical quadrature.
 IPart= 10 Atom number   4 atomic number  8 has       23718 grid points.
 IPart=  3 Atom number   4 atomic number  8 has       23718 grid points.
 IPart= 10 Atom   4 batch    8 overlaps    7 atoms,    83 shells and     7 DB shells.   NGrid=      1180
 IPart=  3 Atom   4 batch    9 overlaps    7 atoms,    83 shells and     7 DB shells.   NGrid=      1180
 Symmetry reduced   590 angular points to   590 for atom    4.
 Symmetry reduced   590 angular points to   590 for atom    4.
 Pruned (  99, 590) grid will be used in numerical quadrature.
 IPart=  7 Atom number   4 atomic number  8 has       23718 grid points.
 IPart=  7 Atom   4 batch   10 overlaps    7 atoms,    83 shells and     7 DB shells.   NGrid=      1180
 Symmetry reduced   590 angular points to   590 for atom    4.
 Pruned (  99, 590) grid will be used in numerical quadrature.
 IPart= 15 Atom number   4 atomic number  8 has       23718 grid points.
 Pruned (  99, 590) grid will be used in numerical quadrature.
 IPart= 15 Atom   4 batch   11 overlaps    7 atoms,    83 shells and     7 DB shells.   NGrid=      1180
 IPart=  4 Atom number   4 atomic number  8 has       23718 grid points.
 IPart=  4 Atom   4 batch   12 overlaps    7 atoms,    82 shells and     7 DB shells.   NGrid=       590
 Symmetry reduced   590 angular points to   590 for atom    4.
 Symmetry reduced   590 angular points to   590 for atom    4.
 Pruned (  99, 590) grid will be used in numerical quadrature.
 IPart=  0 Atom number   4 atomic number  8 has       23718 grid points.
 IPart=  0 Atom   4 batch   13 overlaps    7 atoms,    82 shells and     7 DB shells.   NGrid=       604
 Symmetry reduced   302 angular points to   302 for atom    4.
 Pruned (  99, 590) grid will be used in numerical quadrature.
 IPart=  8 Atom number   4 atomic number  8 has       23718 grid points.
 IPart=  8 Atom   4 batch   14 overlaps    7 atoms,    82 shells and     7 DB shells.   NGrid=       604
 Symmetry reduced   302 angular points to   302 for atom    4.
 Pruned (  99, 590) grid will be used in numerical quadrature.
 IPart= 11 Atom number   4 atomic number  8 has       23718 grid points.
 IPart= 11 Atom   4 batch   15 overlaps    7 atoms,    79 shells and     7 DB shells.   NGrid=       604
 Symmetry reduced   302 angular points to   302 for atom    4.
 IPart=  4 Atom   4 batch   16 overlaps    7 atoms,    77 shells and     7 DB shells.   NGrid=       604
 Symmetry reduced   302 angular points to   302 for atom    4.
 IPart=  0 Atom   4 batch   17 overlaps    7 atoms,    76 shells and     7 DB shells.   NGrid=       604
 Pruned (  99, 590) grid will be used in numerical quadrature.
 IPart=  5 Atom number   4 atomic number  8 has       23718 grid points.
 IPart=  5 Atom   4 batch   18 overlaps    7 atoms,    68 shells and     7 DB shells.   NGrid=       604
 Symmetry reduced   302 angular points to   302 for atom    4.
 IPart=  0 Atom   4 batch   19 overlaps    7 atoms,    57 shells and     7 DB shells.   NGrid=       604
 IPart= 14 Atom   4 batch   20 overlaps    7 atoms,    40 shells and     6 DB shells.   NGrid=       604
 Symmetry reduced   302 angular points to   302 for atom    4.
 IPart=  1 Atom   4 batch   21 overlaps    7 atoms,    24 shells and     5 DB shells.   NGrid=       604
 Symmetry reduced   302 angular points to   302 for atom    4.
 IPart= 12 Atom   4 batch   22 overlaps    7 atoms,    10 shells and     0 DB shells.   NGrid=       604
 IPart=  5 Atom   4 batch   23 overlaps    7 atoms,     4 shells and     0 DB shells.   NGrid=       604
 Symmetry reduced   302 angular points to   302 for atom    4.
 Pruned (  99, 590) grid will be used in numerical quadrature.
 IPart=  4 Atom number   5 atomic number  1 has       23164 grid points.
 IPart=  4 Atom   5 batch    1 overlaps    7 atoms,    74 shells and     7 DB shells.   NGrid=      2838
 Symmetry reduced    86 angular points to    86 for atom    5.
 Pruned (  99, 590) grid will be used in numerical quadrature.
 IPart= 11 Atom number   5 atomic number  1 has       23164 grid points.
 IPart= 11 Atom   5 batch    2 overlaps    7 atoms,    77 shells and     7 DB shells.   NGrid=      1552
 Symmetry reduced   194 angular points to   194 for atom    5.
 Pruned (  99, 590) grid will be used in numerical quadrature.
 IPart=  9 Atom number   5 atomic number  1 has       23164 grid points.
 Pruned (  99, 590) grid will be used in numerical quadrature.
 IPart=  9 Atom   5 batch    3 overlaps    7 atoms,    78 shells and     7 DB shells.   NGrid=      2416
 IPart=  5 Atom number   5 atomic number  1 has       23164 grid points.
 Symmetry reduced   302 angular points to   302 for atom    5.
 IPart=  5 Atom   5 batch    4 overlaps    7 atoms,    78 shells and     7 DB shells.   NGrid=      1180
 Symmetry reduced   590 angular points to   590 for atom    5.
 Pruned (  99, 590) grid will be used in numerical quadrature.
 IPart=  8 Atom number   5 atomic number  1 has       23164 grid points.
 IPart=  8 Atom   5 batch    5 overlaps    7 atoms,    79 shells and     7 DB shells.   NGrid=      1180
 Symmetry reduced   590 angular points to   590 for atom    5.
 Pruned (  99, 590) grid will be used in numerical quadrature.
 Pruned (  99, 590) grid will be used in numerical quadrature.
 IPart= 10 Atom number   5 atomic number  1 has       23164 grid points.
 IPart=  1 Atom number   5 atomic number  1 has       23164 grid points.
 IPart= 10 Atom   5 batch    6 overlaps    7 atoms,    79 shells and     7 DB shells.   NGrid=      1180
 IPart=  1 Atom   5 batch    7 overlaps    7 atoms,    81 shells and     7 DB shells.   NGrid=      1180
 Symmetry reduced   590 angular points to   590 for atom    5.
 Symmetry reduced   590 angular points to   590 for atom    5.
 Pruned (  99, 590) grid will be used in numerical quadrature.
 IPart= 14 Atom number   5 atomic number  1 has       23164 grid points.
 IPart= 14 Atom   5 batch    8 overlaps    7 atoms,    81 shells and     7 DB shells.   NGrid=      1180
 Symmetry reduced   590 angular points to   590 for atom    5.
 Pruned (  99, 590) grid will be used in numerical quadrature.
 IPart= 12 Atom number   5 atomic number  1 has       23164 grid points.
 IPart= 12 Atom   5 batch    9 overlaps    7 atoms,    82 shells and     7 DB shells.   NGrid=      1180
 Pruned (  99, 590) grid will be used in numerical quadrature.
 Symmetry reduced   590 angular points to   590 for atom    5.
 IPart=  3 Atom number   5 atomic number  1 has       23164 grid points.
 IPart=  3 Atom   5 batch   10 overlaps    7 atoms,    82 shells and     7 DB shells.   NGrid=      1180
 Symmetry reduced   590 angular points to   590 for atom    5.
 Pruned (  99, 590) grid will be used in numerical quadrature.
 IPart= 15 Atom number   5 atomic number  1 has       23164 grid points.
 IPart= 15 Atom   5 batch   11 overlaps    7 atoms,    82 shells and     7 DB shells.   NGrid=      1180
 Symmetry reduced   590 angular points to   590 for atom    5.
 Pruned (  99, 590) grid will be used in numerical quadrature.
 IPart=  7 Atom number   5 atomic number  1 has       23164 grid points.
 IPart=  7 Atom   5 batch   12 overlaps    7 atoms,    83 shells and     7 DB shells.   NGrid=      1180
 Symmetry reduced   590 angular points to   590 for atom    5.
 Pruned (  99, 590) grid will be used in numerical quadrature.
 IPart=  0 Atom number   5 atomic number  1 has       23164 grid points.
 IPart=  0 Atom   5 batch   13 overlaps    7 atoms,    83 shells and     7 DB shells.   NGrid=       604
 Symmetry reduced   302 angular points to   302 for atom    5.
 Pruned (  99, 590) grid will be used in numerical quadrature.
 IPart= 13 Atom number   5 atomic number  1 has       23164 grid points.
 IPart= 13 Atom   5 batch   14 overlaps    7 atoms,    83 shells and     7 DB shells.   NGrid=       604
 Symmetry reduced   302 angular points to   302 for atom    5.
 Pruned (  99, 590) grid will be used in numerical quadrature.
 IPart=  6 Atom number   5 atomic number  1 has       23164 grid points.
 IPart=  6 Atom   5 batch   15 overlaps    7 atoms,    79 shells and     7 DB shells.   NGrid=       604
 Symmetry reduced   302 angular points to   302 for atom    5.
 IPart=  0 Atom   5 batch   16 overlaps    7 atoms,    76 shells and     7 DB shells.   NGrid=       604
 Pruned (  99, 590) grid will be used in numerical quadrature.
 IPart=  2 Atom number   5 atomic number  1 has       23164 grid points.
 IPart=  2 Atom   5 batch   17 overlaps    7 atoms,    63 shells and     7 DB shells.   NGrid=       604
 Symmetry reduced   302 angular points to   302 for atom    5.
 IPart=  5 Atom   5 batch   18 overlaps    7 atoms,    48 shells and     7 DB shells.   NGrid=       604
 Symmetry reduced   302 angular points to   302 for atom    5.
 IPart=  8 Atom   5 batch   19 overlaps    7 atoms,    32 shells and     7 DB shells.   NGrid=       604
 Symmetry reduced   302 angular points to   302 for atom    5.
 IPart= 10 Atom   5 batch   20 overlaps    7 atoms,    18 shells and     1 DB shells.   NGrid=       604
 Symmetry reduced   302 angular points to   302 for atom    5.
 IPart=  0 Atom   5 batch   21 overlaps    7 atoms,     9 shells and     0 DB shells.   NGrid=       604
 IPart=  7 Atom   5 batch   22 overlaps    7 atoms,     2 shells and     0 DB shells.   NGrid=       302
 Symmetry reduced   302 angular points to   302 for atom    5.
 Pruned (  99, 590) grid will be used in numerical quadrature.
 IPart=  8 Atom number   6 atomic number  1 has       23164 grid points.
 IPart=  8 Atom   6 batch    1 overlaps    7 atoms,    74 shells and     7 DB shells.   NGrid=      2838
 Symmetry reduced    86 angular points to    86 for atom    6.
 Pruned (  99, 590) grid will be used in numerical quadrature.
 IPart=  7 Atom number   6 atomic number  1 has       23164 grid points.
 IPart=  7 Atom   6 batch    2 overlaps    7 atoms,    74 shells and     7 DB shells.   NGrid=      1552
 Pruned (  99, 590) grid will be used in numerical quadrature.
 Symmetry reduced   194 angular points to   194 for atom    6.
 IPart=  6 Atom number   6 atomic number  1 has       23164 grid points.
 Pruned (  99, 590) grid will be used in numerical quadrature.
 IPart=  6 Atom   6 batch    3 overlaps    7 atoms,    79 shells and     7 DB shells.   NGrid=      2416
 Pruned (  99, 590) grid will be used in numerical quadrature.
 Symmetry reduced   302 angular points to   302 for atom    6.
 IPart= 12 Atom number   6 atomic number  1 has       23164 grid points.
 IPart= 12 Atom   6 batch    5 overlaps    7 atoms,    81 shells and     7 DB shells.   NGrid=      1180
 IPart=  1 Atom number   6 atomic number  1 has       23164 grid points.
 IPart=  1 Atom   6 batch    4 overlaps    7 atoms,    81 shells and     7 DB shells.   NGrid=      1180
 Symmetry reduced   590 angular points to   590 for atom    6.
 Symmetry reduced   590 angular points to   590 for atom    6.
 Pruned (  99, 590) grid will be used in numerical quadrature.
 Pruned (  99, 590) grid will be used in numerical quadrature.
 IPart=  2 Atom number   6 atomic number  1 has       23164 grid points.
 IPart=  3 Atom number   6 atomic number  1 has       23164 grid points.
 IPart=  2 Atom   6 batch    6 overlaps    7 atoms,    81 shells and     7 DB shells.   NGrid=      1180
 IPart=  3 Atom   6 batch    7 overlaps    7 atoms,    81 shells and     7 DB shells.   NGrid=      1180
 Pruned (  99, 590) grid will be used in numerical quadrature.
 Symmetry reduced   590 angular points to   590 for atom    6.
 IPart= 10 Atom number   6 atomic number  1 has       23164 grid points.
 Symmetry reduced   590 angular points to   590 for atom    6.
 IPart= 10 Atom   6 batch    8 overlaps    7 atoms,    81 shells and     7 DB shells.   NGrid=      1180
 Symmetry reduced   590 angular points to   590 for atom    6.
 Pruned (  99, 590) grid will be used in numerical quadrature.
 IPart=  5 Atom number   6 atomic number  1 has       23164 grid points.
 IPart=  5 Atom   6 batch    9 overlaps    7 atoms,    81 shells and     7 DB shells.   NGrid=      1180
 Pruned (  99, 590) grid will be used in numerical quadrature.
 Symmetry reduced   590 angular points to   590 for atom    6.
 Pruned (  99, 590) grid will be used in numerical quadrature.
 IPart= 15 Atom number   6 atomic number  1 has       23164 grid points.
 IPart=  0 Atom number   6 atomic number  1 has       23164 grid points.
 IPart= 15 Atom   6 batch   10 overlaps    7 atoms,    83 shells and     7 DB shells.   NGrid=      1180
 IPart=  0 Atom   6 batch   11 overlaps    7 atoms,    83 shells and     7 DB shells.   NGrid=      1180
 Symmetry reduced   590 angular points to   590 for atom    6.
 Symmetry reduced   590 angular points to   590 for atom    6.
 Pruned (  99, 590) grid will be used in numerical quadrature.
 IPart= 13 Atom number   6 atomic number  1 has       23164 grid points.
 Pruned (  99, 590) grid will be used in numerical quadrature.
 IPart= 13 Atom   6 batch   12 overlaps    7 atoms,    83 shells and     7 DB shells.   NGrid=      1180
 IPart= 14 Atom number   6 atomic number  1 has       23164 grid points.
 Symmetry reduced   590 angular points to   590 for atom    6.
 IPart= 14 Atom   6 batch   13 overlaps    7 atoms,    83 shells and     7 DB shells.   NGrid=       604
 Symmetry reduced   302 angular points to   302 for atom    6.
 Pruned (  99, 590) grid will be used in numerical quadrature.
 IPart= 11 Atom number   6 atomic number  1 has       23164 grid points.
 IPart= 11 Atom   6 batch   14 overlaps    7 atoms,    83 shells and     7 DB shells.   NGrid=       604
 Symmetry reduced   302 angular points to   302 for atom    6.
 IPart= 11 Atom   6 batch   15 overlaps    7 atoms,    79 shells and     7 DB shells.   NGrid=       604
 IPart= 14 Atom   6 batch   16 overlaps    7 atoms,    75 shells and     7 DB shells.   NGrid=       604
 Pruned (  99, 590) grid will be used in numerical quadrature.
 IPart=  9 Atom number   6 atomic number  1 has       23164 grid points.
 IPart=  9 Atom   6 batch   17 overlaps    7 atoms,    61 shells and     7 DB shells.   NGrid=       604
 Symmetry reduced   302 angular points to   302 for atom    6.
 Pruned (  99, 590) grid will be used in numerical quadrature.
 IPart=  4 Atom number   6 atomic number  1 has       23164 grid points.
 IPart=  4 Atom   6 batch   18 overlaps    7 atoms,    50 shells and     7 DB shells.   NGrid=       604
 Symmetry reduced   302 angular points to   302 for atom    6.
 IPart=  1 Atom   6 batch   19 overlaps    7 atoms,    32 shells and     7 DB shells.   NGrid=       604
 Symmetry reduced   302 angular points to   302 for atom    6.
 IPart= 14 Atom   6 batch   20 overlaps    7 atoms,    18 shells and     1 DB shells.   NGrid=       604
 IPart= 12 Atom   6 batch   21 overlaps    7 atoms,     9 shells and     0 DB shells.   NGrid=       604
 Symmetry reduced   302 angular points to   302 for atom    6.
 IPart= 11 Atom   6 batch   22 overlaps    7 atoms,     2 shells and     0 DB shells.   NGrid=       302
 Pruned (  99, 590) grid will be used in numerical quadrature.
 Pruned (  99, 590) grid will be used in numerical quadrature.
 IPart= 13 Atom number   7 atomic number  1 has       23164 grid points.
 IPart=  2 Atom number   7 atomic number  1 has       23164 grid points.
 IPart= 13 Atom   7 batch    1 overlaps    7 atoms,    74 shells and     7 DB shells.   NGrid=      2838
 IPart=  2 Atom   7 batch    2 overlaps    7 atoms,    77 shells and     7 DB shells.   NGrid=      1552
 Symmetry reduced    86 angular points to    86 for atom    7.
 Symmetry reduced   194 angular points to   194 for atom    7.
 Pruned (  99, 590) grid will be used in numerical quadrature.
 IPart= 14 Atom number   7 atomic number  1 has       23164 grid points.
 IPart= 14 Atom   7 batch    3 overlaps    7 atoms,    78 shells and     7 DB shells.   NGrid=      2416
 Symmetry reduced   302 angular points to   302 for atom    7.
 Pruned (  99, 590) grid will be used in numerical quadrature.
 Pruned (  99, 590) grid will be used in numerical quadrature.
 IPart=  0 Atom number   7 atomic number  1 has       23164 grid points.
 Pruned (  99, 590) grid will be used in numerical quadrature.
 IPart=  0 Atom   7 batch    4 overlaps    7 atoms,    78 shells and     7 DB shells.   NGrid=      1180
 IPart=  1 Atom number   7 atomic number  1 has       23164 grid points.
 IPart= 11 Atom number   7 atomic number  1 has       23164 grid points.
 IPart=  1 Atom   7 batch    5 overlaps    7 atoms,    79 shells and     7 DB shells.   NGrid=      1180
 IPart= 11 Atom   7 batch    6 overlaps    7 atoms,    79 shells and     7 DB shells.   NGrid=      1180
 Pruned (  99, 590) grid will be used in numerical quadrature.
 Symmetry reduced   590 angular points to   590 for atom    7.
 IPart=  3 Atom number   7 atomic number  1 has       23164 grid points.
 Symmetry reduced   590 angular points to   590 for atom    7.
 IPart=  3 Atom   7 batch    7 overlaps    7 atoms,    81 shells and     7 DB shells.   NGrid=      1180
 Symmetry reduced   590 angular points to   590 for atom    7.
 Symmetry reduced   590 angular points to   590 for atom    7.
 Pruned (  99, 590) grid will be used in numerical quadrature.
 IPart=  9 Atom number   7 atomic number  1 has       23164 grid points.
 IPart=  9 Atom   7 batch    8 overlaps    7 atoms,    81 shells and     7 DB shells.   NGrid=      1180
 Symmetry reduced   590 angular points to   590 for atom    7.
 Pruned (  99, 590) grid will be used in numerical quadrature.
 IPart=  4 Atom number   7 atomic number  1 has       23164 grid points.
 IPart=  4 Atom   7 batch    9 overlaps    7 atoms,    82 shells and     7 DB shells.   NGrid=      1180
 Symmetry reduced   590 angular points to   590 for atom    7.
 Pruned (  99, 590) grid will be used in numerical quadrature.
 IPart= 15 Atom number   7 atomic number  1 has       23164 grid points.
 IPart= 15 Atom   7 batch   10 overlaps    7 atoms,    82 shells and     7 DB shells.   NGrid=      1180
 Pruned (  99, 590) grid will be used in numerical quadrature.
 Symmetry reduced   590 angular points to   590 for atom    7.
 IPart=  5 Atom number   7 atomic number  1 has       23164 grid points.
 IPart=  5 Atom   7 batch   11 overlaps    7 atoms,    82 shells and     7 DB shells.   NGrid=      1180
 Symmetry reduced   590 angular points to   590 for atom    7.
 Pruned (  99, 590) grid will be used in numerical quadrature.
 IPart= 12 Atom number   7 atomic number  1 has       23164 grid points.
 IPart= 12 Atom   7 batch   12 overlaps    7 atoms,    83 shells and     7 DB shells.   NGrid=      1180
 Symmetry reduced   590 angular points to   590 for atom    7.
 Pruned (  99, 590) grid will be used in numerical quadrature.
 IPart=  7 Atom number   7 atomic number  1 has       23164 grid points.
 IPart=  7 Atom   7 batch   13 overlaps    7 atoms,    83 shells and     7 DB shells.   NGrid=       604
 Symmetry reduced   302 angular points to   302 for atom    7.
 Pruned (  99, 590) grid will be used in numerical quadrature.
 IPart= 10 Atom number   7 atomic number  1 has       23164 grid points.
 IPart= 10 Atom   7 batch   14 overlaps    7 atoms,    83 shells and     7 DB shells.   NGrid=       604
 Symmetry reduced   302 angular points to   302 for atom    7.
 IPart= 10 Atom   7 batch   15 overlaps    7 atoms,    79 shells and     7 DB shells.   NGrid=       604
 IPart=  7 Atom   7 batch   16 overlaps    7 atoms,    76 shells and     7 DB shells.   NGrid=       604
 Pruned (  99, 590) grid will be used in numerical quadrature.
 IPart=  6 Atom number   7 atomic number  1 has       23164 grid points.
[...]
 2548 Fit      -0.156023
 2549 Fit      -0.157357
 2550 Fit      -0.159070
 2551 Fit      -0.161167
 2552 Fit      -0.163658
 2553 Fit      -0.166578
 2554 Fit      -0.170016
 2555 Fit      -0.174158
 2556 Fit      -0.179340
 2557 Fit      -0.186130
 2558 Fit      -0.152553
 2559 Fit      -0.153139
 2560 Fit      -0.153467
 2561 Fit      -0.153643
 2562 Fit      -0.153779
 2563 Fit      -0.153989
 2564 Fit      -0.154376
 2565 Fit      -0.155026
 2566 Fit      -0.155999
 2567 Fit      -0.157333
 2568 Fit      -0.159044
 2569 Fit      -0.161138
 2570 Fit      -0.163624
 2571 Fit      -0.166539
 2572 Fit      -0.169973
 2573 Fit      -0.174109
 2574 Fit      -0.179283
 2575 Fit      -0.186063
 2576 Fit      -0.152345
 2577 Fit      -0.153031
 2578 Fit      -0.153421
 2579 Fit      -0.153651
 2580 Fit      -0.153852
 2581 Fit      -0.154143
 2582 Fit      -0.154631
 2583 Fit      -0.155398
 2584 Fit      -0.156502
 2585 Fit      -0.157975
 2586 Fit      -0.159831
 2587 Fit      -0.162075
 2588 Fit      -0.164729
 2589 Fit      -0.167846
 2590 Fit      -0.171553
 2591 Fit      -0.176096
 2592 Fit      -0.181900
 2593 Fit      -0.189667
 2594 Fit      -0.152293
 2595 Fit      -0.153019
 2596 Fit      -0.153459
 2597 Fit      -0.153758
 2598 Fit      -0.154045
 2599 Fit      -0.154439
 2600 Fit      -0.155042
 2601 Fit      -0.155929
 2602 Fit      -0.157151
 2603 Fit      -0.158735
 2604 Fit      -0.160693
 2605 Fit      -0.163036
 2606 Fit      -0.165794
 2607 Fit      -0.169045
 2608 Fit      -0.172947
 2609 Fit      -0.177788
 2610 Fit      -0.184041
 2611 Fit      -0.152681
 2612 Fit      -0.153328
 2613 Fit      -0.153774
 2614 Fit      -0.154161
 2615 Fit      -0.154622
 2616 Fit      -0.155273
 2617 Fit      -0.156204
 2618 Fit      -0.157475
 2619 Fit      -0.159118
 2620 Fit      -0.161150
 2621 Fit      -0.163588
 2622 Fit      -0.166473
 2623 Fit      -0.169906
 2624 Fit      -0.174083
 2625 Fit      -0.179339
 2626 Fit      -0.186189
 2627 Fit      -0.152519
 2628 Fit      -0.153319
 2629 Fit      -0.153908
 2630 Fit      -0.154430
 2631 Fit      -0.155028
 2632 Fit      -0.155832
 2633 Fit      -0.156940
 2634 Fit      -0.158418
 2635 Fit      -0.160297
 2636 Fit      -0.162599
 2637 Fit      -0.165358
 2638 Fit      -0.168655
 2639 Fit      -0.172656
 2640 Fit      -0.177645
 2641 Fit      -0.184018
 2642 Fit      -0.152529
 2643 Fit      -0.153402
 2644 Fit      -0.154116
 2645 Fit      -0.154778
 2646 Fit      -0.155527
 2647 Fit      -0.156500
 2648 Fit      -0.157799
 2649 Fit      -0.159489
 2650 Fit      -0.161603
 2651 Fit      -0.164168
 2652 Fit      -0.167238
 2653 Fit      -0.170928
 2654 Fit      -0.175418
 2655 Fit      -0.152926
 2656 Fit      -0.153779
 2657 Fit      -0.154591
 2658 Fit      -0.155425
 2659 Fit      -0.156420
 2660 Fit      -0.157715
 2661 Fit      -0.159406
 2662 Fit      -0.161543
 2663 Fit      -0.164151
 2664 Fit      -0.167259
 2665 Fit      -0.170914
 2666 Fit      -0.175103
 2667 Fit      -0.153265
 2668 Fit      -0.153718
 2669 Fit      -0.154523
 2670 Fit      -0.155474
 2671 Fit      -0.156613
 2672 Fit      -0.158090
 2673 Fit      -0.160030
 2674 Fit      -0.162474
 2675 Fit      -0.165382
 2676 Fit      -0.168612
 2677 Fit      -0.154937
 2678 Fit      -0.155580
 2679 Fit      -0.156763
 2680 Fit      -0.158449
 2681 Fit      -0.160710
 2682 Fit      -0.163401
 2683 Fit      -0.165942
 2684 Fit      -0.157088
 2685 Fit      -0.158817
 2686 Fit      -0.161349
 2687 Fit      -0.159265
 2688 Fit      -0.159467
 2689 Fit      -0.161641
 2690 Fit      -0.159083
 2691 Fit      -0.157306
 2692 Fit      -0.166328
 2693 Fit      -0.163752
 2694 Fit      -0.161021
 2695 Fit      -0.158741
 2696 Fit      -0.157070
 2697 Fit      -0.155895
 2698 Fit      -0.155127
 2699 Fit      -0.169055
 2700 Fit      -0.165768
 2701 Fit      -0.162809
 2702 Fit      -0.160331
 2703 Fit      -0.158382
 2704 Fit      -0.156935
 2705 Fit      -0.155868
 2706 Fit      -0.155007
 2707 Fit      -0.154209
 2708 Fit      -0.153473
 2709 Fit      -0.175633
 2710 Fit      -0.171375
 2711 Fit      -0.167657
 2712 Fit      -0.164496
 2713 Fit      -0.161847
 2714 Fit      -0.159684
 2715 Fit      -0.157988
 2716 Fit      -0.156722
 2717 Fit      -0.155802
 2718 Fit      -0.155099
 2719 Fit      -0.154472
 2720 Fit      -0.153807
 2721 Fit      -0.153049
 2722 Fit      -0.175902
 2723 Fit      -0.171346
 2724 Fit      -0.167600
 2725 Fit      -0.164483
 2726 Fit      -0.161881
 2727 Fit      -0.159741
 2728 Fit      -0.158040
 2729 Fit      -0.156755
 2730 Fit      -0.155832
 2731 Fit      -0.155183
 2732 Fit      -0.154693
 2733 Fit      -0.154241
 2734 Fit      -0.153738
 2735 Fit      -0.153143
 2736 Fit      -0.184544
 2737 Fit      -0.178091
 2738 Fit      -0.173040
 2739 Fit      -0.168988
 2740 Fit      -0.165649
 2741 Fit      -0.162854
 2742 Fit      -0.160524
 2743 Fit      -0.158626
 2744 Fit      -0.157145
 2745 Fit      -0.156055
 2746 Fit      -0.155303
 2747 Fit      -0.154806
 2748 Fit      -0.154458
 2749 Fit      -0.154149
 2750 Fit      -0.153796
 2751 Fit      -0.153372
 2752 Fit      -0.186636
 2753 Fit      -0.179717
 2754 Fit      -0.174409
 2755 Fit      -0.170191
 2756 Fit      -0.166723
 2757 Fit      -0.163807
 2758 Fit      -0.161344
 2759 Fit      -0.159292
 2760 Fit      -0.157638
 2761 Fit      -0.156368
 2762 Fit      -0.155457
 2763 Fit      -0.154854
 2764 Fit      -0.154481
 2765 Fit      -0.154245
 2766 Fit      -0.154047
 2767 Fit      -0.153808
 2768 Fit      -0.153501
 2769 Fit      -0.184354
 2770 Fit      -0.178055
 2771 Fit      -0.173180
 2772 Fit      -0.169250
 2773 Fit      -0.165975
 2774 Fit      -0.163195
 2775 Fit      -0.160834
 2776 Fit      -0.158862
 2777 Fit      -0.157269
 2778 Fit      -0.156047
 2779 Fit      -0.155173
 2780 Fit      -0.154602
 2781 Fit      -0.154267
 2782 Fit      -0.154082
 2783 Fit      -0.153953
 2784 Fit      -0.153793
 2785 Fit      -0.153552
 2786 Fit      -0.153250
 2787 Fit      -0.189885
 2788 Fit      -0.182083
 2789 Fit      -0.176254
 2790 Fit      -0.171691
 2791 Fit      -0.167967
 2792 Fit      -0.164836
 2793 Fit      -0.162170
 2794 Fit      -0.159914
 2795 Fit      -0.158050
 2796 Fit      -0.156573
 2797 Fit      -0.155471
 2798 Fit      -0.154715
 2799 Fit      -0.154251
 2800 Fit      -0.154004
 2801 Fit      -0.153879
 2802 Fit      -0.153775
 2803 Fit      -0.153600
 2804 Fit      -0.153302
 2805 Fit      -0.152902
 2806 Fit      -0.186133
 2807 Fit      -0.179342
 2808 Fit      -0.174160
 2809 Fit      -0.170018
 2810 Fit      -0.166579
 2811 Fit      -0.163659
 2812 Fit      -0.161169
 2813 Fit      -0.159072
 2814 Fit      -0.157358
 2815 Fit      -0.156024
 2816 Fit      -0.155052
 2817 Fit      -0.154407
 2818 Fit      -0.154029
 2819 Fit      -0.153836
 2820 Fit      -0.153729
 2821 Fit      -0.153602
 2822 Fit      -0.153359
 2823 Fit      -0.152930
 2824 Fit      -0.186066
 2825 Fit      -0.179285
 2826 Fit      -0.174111
 2827 Fit      -0.169974
 2828 Fit      -0.166541
 2829 Fit      -0.163625
 2830 Fit      -0.161139
 2831 Fit      -0.159045
 2832 Fit      -0.157334
 2833 Fit      -0.156000
 2834 Fit      -0.155027
 2835 Fit      -0.154377
 2836 Fit      -0.153990
 2837 Fit      -0.153780
 2838 Fit      -0.153643
 2839 Fit      -0.153467
 2840 Fit      -0.153140
 2841 Fit      -0.152555
 2842 Fit      -0.189670
 2843 Fit      -0.181902
 2844 Fit      -0.176098
 2845 Fit      -0.171555
 2846 Fit      -0.167847
 2847 Fit      -0.164730
 2848 Fit      -0.162077
 2849 Fit      -0.159832
 2850 Fit      -0.157976
 2851 Fit      -0.156503
 2852 Fit      -0.155399
 2853 Fit      -0.154631
 2854 Fit      -0.154143
 2855 Fit      -0.153852
 2856 Fit      -0.153652
 2857 Fit      -0.153421
 2858 Fit      -0.153032
 2859 Fit      -0.152346
 2860 Fit      -0.184042
 2861 Fit      -0.177789
 2862 Fit      -0.172948
 2863 Fit      -0.169046
 2864 Fit      -0.165795
 2865 Fit      -0.163037
 2866 Fit      -0.160694
 2867 Fit      -0.158736
 2868 Fit      -0.157151
 2869 Fit      -0.155929
 2870 Fit      -0.155042
 2871 Fit      -0.154440
 2872 Fit      -0.154045
 2873 Fit      -0.153758
 2874 Fit      -0.153460
 2875 Fit      -0.153019
 2876 Fit      -0.152294
 2877 Fit      -0.186190
 2878 Fit      -0.179340
 2879 Fit      -0.174084
 2880 Fit      -0.169908
 2881 Fit      -0.166474
 2882 Fit      -0.163589
 2883 Fit      -0.161151
 2884 Fit      -0.159119
 2885 Fit      -0.157476
 2886 Fit      -0.156205
 2887 Fit      -0.155274
 2888 Fit      -0.154623
 2889 Fit      -0.154161
 2890 Fit      -0.153774
 2891 Fit      -0.153329
 2892 Fit      -0.152682
 2893 Fit      -0.184019
 2894 Fit      -0.177646
 2895 Fit      -0.172657
 2896 Fit      -0.168656
 2897 Fit      -0.165359
 2898 Fit      -0.162600
 2899 Fit      -0.160298
 2900 Fit      -0.158418
 2901 Fit      -0.156941
 2902 Fit      -0.155832
 2903 Fit      -0.155028
 2904 Fit      -0.154430
 2905 Fit      -0.153909
 2906 Fit      -0.153319
 2907 Fit      -0.152519
 2908 Fit      -0.175418
 2909 Fit      -0.170929
 2910 Fit      -0.167239
 2911 Fit      -0.164169
 2912 Fit      -0.161604
 2913 Fit      -0.159490
 2914 Fit      -0.157800
 2915 Fit      -0.156501
 2916 Fit      -0.155528
 2917 Fit      -0.154778
 2918 Fit      -0.154117
 2919 Fit      -0.153402
 2920 Fit      -0.152529
 2921 Fit      -0.175103
 2922 Fit      -0.170915
 2923 Fit      -0.167259
 2924 Fit      -0.164151
 2925 Fit      -0.161544
 2926 Fit      -0.159407
 2927 Fit      -0.157715
 2928 Fit      -0.156421
 2929 Fit      -0.155425
 2930 Fit      -0.154591
 2931 Fit      -0.153779
 2932 Fit      -0.152926
 2933 Fit      -0.168613
 2934 Fit      -0.165382
 2935 Fit      -0.162474
 2936 Fit      -0.160031
 2937 Fit      -0.158091
 2938 Fit      -0.156614
 2939 Fit      -0.155475
 2940 Fit      -0.154523
 2941 Fit      -0.153718
 2942 Fit      -0.153265
 2943 Fit      -0.165942
 2944 Fit      -0.163401
 2945 Fit      -0.160710
 2946 Fit      -0.158449
 2947 Fit      -0.156763
 2948 Fit      -0.155580
 2949 Fit      -0.154937
 2950 Fit      -0.161349
 2951 Fit      -0.158817
 2952 Fit      -0.157088
 2953 Fit      -0.159265
 2954 Fit      -0.123650
 2955 Fit      -0.111229
 2956 Fit      -0.113107
 2957 Fit      -0.116547
 2958 Fit      -0.121880
 2959 Fit      -0.129605
 2960 Fit      -0.140488
 2961 Fit      -0.107715
 2962 Fit      -0.107988
 2963 Fit      -0.109449
 2964 Fit      -0.112276
 2965 Fit      -0.116739
 2966 Fit      -0.123241
 2967 Fit      -0.132396
 2968 Fit      -0.145174
 2969 Fit      -0.106307
 2970 Fit      -0.105433
 2971 Fit      -0.105505
 2972 Fit      -0.106614
 2973 Fit      -0.108899
 2974 Fit      -0.112565
 2975 Fit      -0.117914
 2976 Fit      -0.125394
 2977 Fit      -0.135690
 2978 Fit      -0.149884
 2979 Fit      -0.104706
 2980 Fit      -0.103817
 2981 Fit      -0.103805
 2982 Fit      -0.104746
 2983 Fit      -0.106761
 2984 Fit      -0.110020
 2985 Fit      -0.114771
 2986 Fit      -0.121374
 2987 Fit      -0.130358
 2988 Fit      -0.142532
 2989 Fit      -0.105386
 2990 Fit      -0.103684
 2991 Fit      -0.102836
 2992 Fit      -0.102889
 2993 Fit      -0.103925
 2994 Fit      -0.106067
 2995 Fit      -0.109492
 2996 Fit      -0.114453
 2997 Fit      -0.121311
 2998 Fit      -0.130589
 2999 Fit      -0.143064
 3000 Fit      -0.104958
 3001 Fit      -0.103290
 3002 Fit      -0.102535
 3003 Fit      -0.102751
 3004 Fit      -0.104032
 3005 Fit      -0.106517
 3006 Fit      -0.110402
 3007 Fit      -0.115962
 3008 Fit      -0.123580
 3009 Fit      -0.133790
 3010 Fit      -0.147325
 3011 Fit      -0.105163
 3012 Fit      -0.103584
 3013 Fit      -0.102966
 3014 Fit      -0.103380
 3015 Fit      -0.104929
 3016 Fit      -0.107761
 3017 Fit      -0.112075
 3018 Fit      -0.118136
 3019 Fit      -0.126290
 3020 Fit      -0.136957
 3021 Fit      -0.150580
 3022 Fit      -0.106035
 3023 Fit      -0.104538
 3024 Fit      -0.104192
 3025 Fit      -0.105101
 3026 Fit      -0.107405
 3027 Fit      -0.111287
 3028 Fit      -0.116979
 3029 Fit      -0.124744
 3030 Fit      -0.134818
 3031 Fit      -0.147244
 3032 Fit      -0.108606
 3033 Fit      -0.107629
 3034 Fit      -0.106298
 3035 Fit      -0.106359
 3036 Fit      -0.107954
 3037 Fit      -0.111247
 3038 Fit      -0.116416
 3039 Fit      -0.123602
 3040 Fit      -0.132778
 3041 Fit      -0.143484
 3042 Fit      -0.110230
 3043 Fit      -0.110021
 3044 Fit      -0.108959
 3045 Fit      -0.109788
 3046 Fit      -0.112692
 3047 Fit      -0.117788
 3048 Fit      -0.124986
 3049 Fit      -0.133705
 3050 Fit      -0.142486
 3051 Fit      -0.112766
 3052 Fit      -0.113320
 3053 Fit      -0.112841
 3054 Fit      -0.115506
 3055 Fit      -0.121237
 3056 Fit      -0.128972
 3057 Fit      -0.136136
 3058 Fit      -0.117676
 3059 Fit      -0.119031
 3060 Fit      -0.125540
 3061 Fit      -0.123296
 3062 Fit      -0.113039
 3063 Fit      -0.108487
 3064 Fit      -0.110942
 3065 Fit      -0.116198
 3066 Fit      -0.118969
 3067 Fit      -0.116198
 3068 Fit      -0.110941
 3069 Fit      -0.105134
 3070 Fit      -0.106329
 3071 Fit      -0.109779
 3072 Fit      -0.114943
 3073 Fit      -0.120593
 3074 Fit      -0.124922
 3075 Fit      -0.126506
 3076 Fit      -0.124922
 3077 Fit      -0.120592
 3078 Fit      -0.114942
 3079 Fit      -0.109778
 3080 Fit      -0.106329
 3081 Fit      -0.102844
 3082 Fit      -0.103583
 3083 Fit      -0.105797
 3084 Fit      -0.109456
 3085 Fit      -0.114435
 3086 Fit      -0.120364
 3087 Fit      -0.126468
 3088 Fit      -0.131624
 3089 Fit      -0.134874
 3090 Fit      -0.135937
 3091 Fit      -0.134874
 3092 Fit      -0.131623
 3093 Fit      -0.126466
 3094 Fit      -0.120363
 3095 Fit      -0.114434
 3096 Fit      -0.109455
 3097 Fit      -0.105796
 3098 Fit      -0.103582
 3099 Fit      -0.101512
 3100 Fit      -0.102070
 3101 Fit      -0.103758
 3102 Fit      -0.106608
 3103 Fit      -0.110663
 3104 Fit      -0.115937
 3105 Fit      -0.122316
 3106 Fit      -0.129413
 3107 Fit      -0.136418
 3108 Fit      -0.142197
 3109 Fit      -0.142196
 3110 Fit      -0.136417
 3111 Fit      -0.129412
 3112 Fit      -0.122314
 3113 Fit      -0.115935
 3114 Fit      -0.110661
 3115 Fit      -0.106606
 3116 Fit      -0.103756
 3117 Fit      -0.102070
 3118 Fit      -0.101057
 3119 Fit      -0.101527
 3120 Fit      -0.102953
 3121 Fit      -0.105377
 3122 Fit      -0.108874
 3123 Fit      -0.113549
 3124 Fit      -0.119510
 3125 Fit      -0.126794
 3126 Fit      -0.135214
 3127 Fit      -0.144134
 3128 Fit      -0.144132
 3129 Fit      -0.135211
 3130 Fit      -0.126791
 3131 Fit      -0.119507
 3132 Fit      -0.113547
 3133 Fit      -0.108872
 3134 Fit      -0.105375
 3135 Fit      -0.102952
 3136 Fit      -0.101527
 3137 Fit      -0.101418
 3138 Fit      -0.101818
 3139 Fit      -0.103030
 3140 Fit      -0.105091
 3141 Fit      -0.108071
 3142 Fit      -0.112086
 3143 Fit      -0.117299
 3144 Fit      -0.123912
 3145 Fit      -0.132118
 3146 Fit      -0.141969
 3147 Fit      -0.141966
 3148 Fit      -0.132115
 3149 Fit      -0.123909
 3150 Fit      -0.117296
 3151 Fit      -0.112083
 3152 Fit      -0.108069
 3153 Fit      -0.105089
 3154 Fit      -0.103029
 3155 Fit      -0.101818
 3156 Fit      -0.102551
 3157 Fit      -0.102937
 3158 Fit      -0.104108
 3159 Fit      -0.106098
 3160 Fit      -0.108979
 3161 Fit      -0.112879
 3162 Fit      -0.118000
 3163 Fit      -0.124634
 3164 Fit      -0.117997
 3165 Fit      -0.112876
 3166 Fit      -0.108976
 3167 Fit      -0.106096
 3168 Fit      -0.104107
 3169 Fit      -0.102937
 3170 Fit      -0.104425
 3171 Fit      -0.104795
 3172 Fit      -0.105913
 3173 Fit      -0.107807
 3174 Fit      -0.110539
 3175 Fit      -0.110536
 3176 Fit      -0.107805
 3177 Fit      -0.105912
 3178 Fit      -0.104794
 3179 Fit      -0.123657
 3180 Fit      -0.140498
 3181 Fit      -0.129613
 3182 Fit      -0.121886
 3183 Fit      -0.116552
 3184 Fit      -0.113112
 3185 Fit      -0.111233
 3186 Fit      -0.145184
 3187 Fit      -0.132404
 3188 Fit      -0.123248
 3189 Fit      -0.116745
 3190 Fit      -0.112280
 3191 Fit      -0.109452
 3192 Fit      -0.107991
 3193 Fit      -0.107717
 3194 Fit      -0.149894
 3195 Fit      -0.135698
 3196 Fit      -0.125401
 3197 Fit      -0.117919
 3198 Fit      -0.112569
 3199 Fit      -0.108902
 3200 Fit      -0.106617
 3201 Fit      -0.105508
 3202 Fit      -0.105434
 3203 Fit      -0.106308
 3204 Fit      -0.142540
 3205 Fit      -0.130364
 3206 Fit      -0.121378
 3207 Fit      -0.114775
 3208 Fit      -0.110023
 3209 Fit      -0.106763
 3210 Fit      -0.104748
 3211 Fit      -0.103806
 3212 Fit      -0.103817
 3213 Fit      -0.104706
 3214 Fit      -0.105385
 3215 Fit      -0.143070
 3216 Fit      -0.130594
 3217 Fit      -0.121314
 3218 Fit      -0.114456
 3219 Fit      -0.109495
 3220 Fit      -0.106069
 3221 Fit      -0.103926
 3222 Fit      -0.102890
 3223 Fit      -0.102836
 3224 Fit      -0.103683
 3225 Fit      -0.104956
 3226 Fit      -0.147329
 3227 Fit      -0.133793
 3228 Fit      -0.123582
 3229 Fit      -0.115964
 3230 Fit      -0.110404
 3231 Fit      -0.106518
 3232 Fit      -0.104032
 3233 Fit      -0.102751
 3234 Fit      -0.102534
 3235 Fit      -0.103288
 3236 Fit      -0.105160
 3237 Fit      -0.150581
 3238 Fit      -0.136958
 3239 Fit      -0.126291
 3240 Fit      -0.118137
 3241 Fit      -0.112075
 3242 Fit      -0.107761
 3243 Fit      -0.104929
 3244 Fit      -0.103379
 3245 Fit      -0.102965
 3246 Fit      -0.103582
 3247 Fit      -0.106032
 3248 Fit      -0.108602
 3249 Fit      -0.147242
 3250 Fit      -0.134817
 3251 Fit      -0.124743
 3252 Fit      -0.116979
 3253 Fit      -0.111287
 3254 Fit      -0.107404
 3255 Fit      -0.105100
 3256 Fit      -0.104190
 3257 Fit      -0.104535
 3258 Fit      -0.107625
 3259 Fit      -0.110226
 3260 Fit      -0.143480
 3261 Fit      -0.132776
 3262 Fit      -0.123600
 3263 Fit      -0.116414
 3264 Fit      -0.111245
 3265 Fit      -0.107952
 3266 Fit      -0.106356
 3267 Fit      -0.106294
 3268 Fit      -0.110017
 3269 Fit      -0.112761
 3270 Fit      -0.142480
 3271 Fit      -0.133701
 3272 Fit      -0.124983
 3273 Fit      -0.117785
 3274 Fit      -0.112689
 3275 Fit      -0.109785
 3276 Fit      -0.108955
 3277 Fit      -0.113315
 3278 Fit      -0.136129
 3279 Fit      -0.128967
 3280 Fit      -0.121232
 3281 Fit      -0.115502
 3282 Fit      -0.112837
 3283 Fit      -0.117671
 3284 Fit      -0.125534
 3285 Fit      -0.119026
 3286 Fit      -0.123290
 -----------------------------------------------------------------
 Leave Link  602 at Tue Sep 30 16:59:37 2025, MaxMem=  4294967296 cpu:               1.7 elap:               0.1
 (Enter /software/sse/easybuild/prefix/software/Gaussian/16.C.01-avx2-nsc1/g16/l9999.exe)

 Test job not archived.
 1\1\NSC-N1298\FOpt\RHF\Aug-CC-pVTZ\C2H3O2(1-)\X_DAVVA\30-Sep-2025\0\\#
 P HF/aug-cc-pvtz Opt=tight Pop=(MK,Hirshfeld) iop(6/33=2) iop(6/42=6) 
 maxdisk=128GB\\acetate\\-1,1\C,-1.3362808922,-0.000023092,-0.005111279
 8\C,0.2097005524,-0.0000002268,-0.0095746629\O,0.743123977,-1.11089139
 27,0.0017637046\O,0.7430727406,1.110919332,0.0017416567\H,-1.727513016
 8,-0.8902520982,-0.4840360735\H,-1.6750764957,0.0001549442,1.028416712
 2\H,-1.7275268653,0.8900425335,-0.4843300571\\Version=ES64L-G16RevC.01
 \State=1-A\HF=-227.3307588\RMSD=5.512e-09\RMSF=8.022e-07\Dipole=-1.585
 0564,-0.0000395,-0.006699\Quadrupole=-0.7019445,-3.573991,4.2759355,0.
 0000462,-0.036364,0.0000766\PG=C01 [X(C2H3O2)]\\@


 MAN IS A SINGULAR CREATURE.  HE HAS A SET OF GIFTS
 WHICH MAKE HIM UNIQUE AMONG THE ANIMALS: SO THAT, 
 UNLIKE THEM, HE IS NOT A FIGURE IN THE LANDSCAPE --
 HE IS A SHAPER OF THE LANDSCAPE.

                       -- JACOB BRONOWSKI
 Job cpu time:       0 days  0 hours  7 minutes 56.4 seconds.
 Elapsed time:       0 days  0 hours  0 minutes 44.3 seconds.
 File lengths (MBytes):  RWF=     34 Int=      0 D2E=      0 Chk=     12 Scr=      1
 Normal termination of Gaussian 16 at Tue Sep 30 16:59:37 2025.
