 Entering Gaussian System, Link 0=/software/sse/easybuild/prefix/software/Gaussian/16.C.01-avx2-nsc1/g16/g16.orig
 Input=acetate.wrap
 Output=acetate.log
 Initial command:
 /software/sse/easybuild/prefix/software/Gaussian/16.C.01-avx2-nsc1/g16/l1.exe "/scratch/local/Gau-851336.inp" -scrdir="/scratch/local/"
 Entering Link 1 = /software/sse/easybuild/prefix/software/Gaussian/16.C.01-avx2-nsc1/g16/l1.exe PID=    851337.
  
 Copyright (c) 1988-2019, Gaussian, Inc.  All Rights Reserved.
  
 This is part of the Gaussian(R) 16 program.  It is based on
 the Gaussian(R) 09 system (copyright 2009, Gaussian, Inc.),
 the Gaussian(R) 03 system (copyright 2003, Gaussian, Inc.),
 the Gaussian(R) 98 system (copyright 1998, Gaussian, Inc.),
 the Gaussian(R) 94 system (copyright 1995, Gaussian, Inc.),
 the Gaussian 92(TM) system (copyright 1992, Gaussian, Inc.),
 the Gaussian 90(TM) system (copyright 1990, Gaussian, Inc.),
 the Gaussian 88(TM) system (copyright 1988, Gaussian, Inc.),
 the Gaussian 86(TM) system (copyright 1986, Carnegie Mellon
 University), and the Gaussian 82(TM) system (copyright 1983,
 Carnegie Mellon University). Gaussian is a federally registered
 trademark of Gaussian, Inc.
  
 This software contains proprietary and confidential information,
 including trade secrets, belonging to Gaussian, Inc.
  
 This software is provided under written license and may be
 used, copied, transmitted, or stored only in accord with that
 written license.
  
 The following legend is applicable only to US Government
 contracts under FAR:
  
                    RESTRICTED RIGHTS LEGEND
  
 Use, reproduction and disclosure by the US Government is
 subject to restrictions as set forth in subparagraphs (a)
 and (c) of the Commercial Computer Software - Restricted
 Rights clause in FAR 52.227-19.
  
 Gaussian, Inc.
 340 Quinnipiac St., Bldg. 40, Wallingford CT 06492
  
  
 ---------------------------------------------------------------
 Warning -- This program may not be used in any manner that
 competes with the business of Gaussian, Inc. or will provide
 assistance to any competitor of Gaussian, Inc.  The licensee
 of this program is prohibited from giving any competitor of
 Gaussian, Inc. access to this program.  By using this program,
 the user acknowledges that Gaussian, Inc. is engaged in the
 business of creating and licensing software in the field of
 computational chemistry and represents and warrants to the
 licensee that it is not a competitor of Gaussian, Inc. and that
 it will not use this program in any manner prohibited above.
 ---------------------------------------------------------------
  

 Cite this work as:
 Gaussian 16, Revision C.01,
 M. J. Frisch, G. W. Trucks, H. B. Schlegel, G. E. Scuseria, 
 M. A. Robb, J. R. Cheeseman, G. Scalmani, V. Barone, 
 G. A. Petersson, H. Nakatsuji, X. Li, M. Caricato, A. V. Marenich, 
 J. Bloino, B. G. Janesko, R. Gomperts, B. Mennucci, H. P. Hratchian, 
 J. V. Ortiz, A. F. Izmaylov, J. L. Sonnenberg, D. Williams-Young, 
 F. Ding, F. Lipparini, F. Egidi, J. Goings, B. Peng, A. Petrone, 
 T. Henderson, D. Ranasinghe, V. G. Zakrzewski, J. Gao, N. Rega, 
 G. Zheng, W. Liang, M. Hada, M. Ehara, K. Toyota, R. Fukuda, 
 J. Hasegawa, M. Ishida, T. Nakajima, Y. Honda, O. Kitao, H. Nakai, 
 T. Vreven, K. Throssell, J. A. Montgomery, Jr., J. E. Peralta, 
 F. Ogliaro, M. J. Bearpark, J. J. Heyd, E. N. Brothers, K. N. Kudin, 
 V. N. Staroverov, T. A. Keith, R. Kobayashi, J. Normand, 
 K. Raghavachari, A. P. Rendell, J. C. Burant, S. S. Iyengar, 
 J. Tomasi, M. Cossi, J. M. Millam, M. Klene, C. Adamo, R. Cammi, 
 J. W. Ochterski, R. L. Martin, K. Morokuma, O. Farkas, 
 J. B. Foresman, and D. J. Fox, Gaussian, Inc., Wallingford CT, 2019.
 
 ******************************************
 Gaussian 16:  ES64L-G16RevC.01  3-Jul-2019
                28-Sep-2025 
 ******************************************
 %mem=12000MB
 %nprocshared=8
 Will use up to    8 processors via shared memory.
 %chk=water19.chk
 ----------------------------------------------------------------------
 #P HF/aug-cc-pvtz Opt=(Redundant, calcall, verytight) symm=(loose,foll
 ow) Pop=(MK,Hirshfeld,ReadRadii) iop(6/33=2) iop(6/42=6) Polar Freq ma
 xdisk=128GB
 ----------------------------------------------------------------------
 1/7=1,10=4,18=20,19=15,38=1/1,3;
 2/9=110,12=2,17=4,18=3,40=1/2;
 3/5=16,6=1,7=10,11=9,25=1,30=1,71=2,140=1/1,2,3;
 4//1;
 5/5=2,38=5,98=1/2;
 8/6=4,10=90,11=11/1;
 11/6=1,8=1,9=11,15=111,16=1/1,2,10;
 10/6=1/2;
 6/7=2,8=2,9=2,10=2,15=8,18=1,20=101,28=1,33=2,42=6,79=1/1,2;
 7/10=1,25=1/1,2,3,16;
 1/7=1,10=4,18=20,19=15/3(3);
 2/9=110,15=5/2;
 7/8=1,9=1,25=1,44=-1/16;
 99//99;
 2/9=110,15=5/2;
 3/5=16,6=1,7=10,11=9,25=1,30=1,71=2,140=1/1,2,3;
 4/5=5,16=3,69=1/1;
 5/5=2,38=5,98=1/2;
 8/6=4,10=90,11=11/1;
 11/6=1,8=1,9=11,15=111,16=1/1,2,10;
 10/6=1/2;
 7/10=1,25=1/1,2,3,16;
 1/7=1,10=4,18=20,19=15/3(-8);
 2/9=110,15=5/2;
 6/7=2,8=2,9=2,10=2,15=8,18=1,19=2,20=101,28=1,33=2,42=6,79=1/1,2;
 7/8=1,9=1,25=1,44=-1/16;
 99//99;
 Leave Link    1 at Sun Sep 28 21:01:52 2025, MaxMem=  1572864000 cpu:               0.8 elap:               0.1
 (Enter /software/sse/easybuild/prefix/software/Gaussian/16.C.01-avx2-nsc1/g16/l101.exe)
 -------
 acetate
 -------
 Symbolic Z-matrix:
 Charge = -1 Multiplicity = 1
 C                     0.00277   0.00016  -1.44443 
 C                     0.00495   0.00066   0.11409 
 O                     1.15399   0.00033   0.68195 
 O                    -1.1565   -0.00078   0.66008 
 H                     1.02001   0.01687  -1.83803 
 H                    -0.52038  -0.88986  -1.80971 
 H                    -0.55162   0.87023  -1.81104 
 
 ITRead=  0  0  0  0  0  0  0
 MicOpt= -1 -1 -1 -1 -1 -1 -1
 NAtoms=      7 NQM=        7 NQMF=       0 NMMI=      0 NMMIF=      0
                NMic=       0 NMicF=      0.
                    Isotopes and Nuclear Properties:
 (Nuclear quadrupole moments (NQMom) in fm**2, nuclear magnetic moments (NMagM)
  in nuclear magnetons)

  Atom         1           2           3           4           5           6           7
 IAtWgt=          12          12          16          16           1           1           1
 AtmWgt=  12.0000000  12.0000000  15.9949146  15.9949146   1.0078250   1.0078250   1.0078250
 NucSpn=           0           0           0           0           1           1           1
 AtZEff=  -0.0000000  -0.0000000  -0.0000000  -0.0000000  -0.0000000  -0.0000000  -0.0000000
 NQMom=    0.0000000   0.0000000   0.0000000   0.0000000   0.0000000   0.0000000   0.0000000
 NMagM=    0.0000000   0.0000000   0.0000000   0.0000000   2.7928460   2.7928460   2.7928460
 AtZNuc=   6.0000000   6.0000000   8.0000000   8.0000000   1.0000000   1.0000000   1.0000000
 Leave Link  101 at Sun Sep 28 21:01:52 2025, MaxMem=  1572864000 cpu:               2.1 elap:               0.3
 (Enter /software/sse/easybuild/prefix/software/Gaussian/16.C.01-avx2-nsc1/g16/l103.exe)

 GradGradGradGradGradGradGradGradGradGradGradGradGradGradGradGradGradGrad
 Berny optimization.
 Initialization pass.
                           ----------------------------
                           !    Initial Parameters    !
                           ! (Angstroms and Degrees)  !
 --------------------------                            --------------------------
 ! Name  Definition              Value          Derivative Info.                !
 --------------------------------------------------------------------------------
 ! R1    R(1,2)                  1.5585         calculate D2E/DX2 analytically  !
 ! R2    R(1,5)                  1.0909         calculate D2E/DX2 analytically  !
 ! R3    R(1,6)                  1.0951         calculate D2E/DX2 analytically  !
 ! R4    R(1,7)                  1.0949         calculate D2E/DX2 analytically  !
 ! R5    R(2,3)                  1.2817         calculate D2E/DX2 analytically  !
 ! R6    R(2,4)                  1.2834         calculate D2E/DX2 analytically  !
 ! A1    A(2,1,5)              111.0699         calculate D2E/DX2 analytically  !
 ! A2    A(2,1,6)              109.5415         calculate D2E/DX2 analytically  !
 ! A3    A(2,1,7)              109.5902         calculate D2E/DX2 analytically  !
 ! A4    A(5,1,6)              109.7289         calculate D2E/DX2 analytically  !
 ! A5    A(5,1,7)              109.8271         calculate D2E/DX2 analytically  !
 ! A6    A(6,1,7)              106.994          calculate D2E/DX2 analytically  !
 ! A7    A(1,2,3)              116.3788         calculate D2E/DX2 analytically  !
 ! A8    A(1,2,4)              115.0974         calculate D2E/DX2 analytically  !
 ! A9    A(3,2,4)              128.5237         calculate D2E/DX2 analytically  !
 ! D1    D(5,1,2,3)             -0.9732         calculate D2E/DX2 analytically  !
 ! D2    D(5,1,2,4)            179.132          calculate D2E/DX2 analytically  !
 ! D3    D(6,1,2,3)            120.4001         calculate D2E/DX2 analytically  !
 ! D4    D(6,1,2,4)            -59.4948         calculate D2E/DX2 analytically  !
 ! D5    D(7,1,2,3)           -122.5022         calculate D2E/DX2 analytically  !
 ! D6    D(7,1,2,4)             57.6029         calculate D2E/DX2 analytically  !
 --------------------------------------------------------------------------------
 Trust Radius=3.00D-01 FncErr=1.00D-07 GrdErr=1.00D-07 EigMax=2.50D+02 EigMin=1.00D-04
 Number of steps in this run=     31 maximum allowed number of steps=    100.
 GradGradGradGradGradGradGradGradGradGradGradGradGradGradGradGradGradGrad

 Leave Link  103 at Sun Sep 28 21:01:52 2025, MaxMem=  1572864000 cpu:               0.1 elap:               0.0
 (Enter /software/sse/easybuild/prefix/software/Gaussian/16.C.01-avx2-nsc1/g16/l202.exe)
                          Input orientation:                          
 ---------------------------------------------------------------------
 Center     Atomic      Atomic             Coordinates (Angstroms)
 Number     Number       Type             X           Y           Z
 ---------------------------------------------------------------------
      1          6           0        0.002768    0.000163   -1.444430
      2          6           0        0.004950    0.000662    0.114091
      3          8           0        1.153990    0.000332    0.681947
      4          8           0       -1.156504   -0.000778    0.660078
      5          1           0        1.020015    0.016873   -1.838034
      6          1           0       -0.520381   -0.889855   -1.809715
      7          1           0       -0.551616    0.870231   -1.811036
 ---------------------------------------------------------------------
                    Distance matrix (angstroms):
                    1          2          3          4          5
     1  C    0.000000
     2  C    1.558523   0.000000
     3  O    2.418014   1.281699   0.000000
     4  O    2.402679   1.283386   2.310598   0.000000
     5  H    1.090869   2.200321   2.523594   3.313323   0.000000
     6  H    1.095103   2.184038   3.131187   2.700923   1.787674
     7  H    1.094878   2.184498   3.143370   2.689042   1.788567
                    6          7
     6  H    0.000000
     7  H    1.760363   0.000000
 Stoichiometry    C2H3O2(1-)
 Framework group  C1[X(C2H3O2)]
 Deg. of freedom    15
 Full point group                 C1      NOp   1
 Largest Abelian subgroup         C1      NOp   1
 Largest concise Abelian subgroup C1      NOp   1
                         Standard orientation:                         
 ---------------------------------------------------------------------
 Center     Atomic      Atomic             Coordinates (Angstroms)
 Number     Number       Type             X           Y           Z
 ---------------------------------------------------------------------
      1          6           0       -1.356206   -0.051656   -0.000199
      2          6           0        0.201416    0.001351   -0.000704
      3          8           0        0.809602   -1.126861    0.000188
      4          8           0        0.705933    1.181410    0.000162
      5          1           0       -1.713542   -1.082210   -0.016406
      6          1           0       -1.739797    0.458668    0.889564
      7          1           0       -1.742201    0.488972   -0.870537
 ---------------------------------------------------------------------
 Rotational constants (GHZ):          11.0216691           9.8700588           5.3801876
 Leave Link  202 at Sun Sep 28 21:01:52 2025, MaxMem=  1572864000 cpu:               0.0 elap:               0.0
 (Enter /software/sse/easybuild/prefix/software/Gaussian/16.C.01-avx2-nsc1/g16/l301.exe)
 Standard basis: Aug-CC-pVTZ (5D, 7F)
 Ernie: Thresh=  0.10000D-02 Tol=  0.10000D-05 Strict=F.
 Ernie:  12 primitive shells out of 153 were deleted.
 There are   295 symmetry adapted cartesian basis functions of A   symmetry.
 There are   253 symmetry adapted basis functions of A   symmetry.
   253 basis functions,   369 primitive gaussians,   295 cartesian basis functions
    16 alpha electrons       16 beta electrons
       nuclear repulsion energy       110.3150895575 Hartrees.
 IExCor=    0 DFT=F Ex=HF Corr=None ExCW=0 ScaHFX=  1.000000
 ScaDFX=  1.000000  1.000000  1.000000  1.000000 ScalE2=  1.000000  1.000000
 IRadAn=      5 IRanWt=     -1 IRanGd=            0 ICorTp=0 IEmpDi=  4
 NAtoms=    7 NActive=    7 NUniq=    7 SFac= 1.00D+00 NAtFMM=   60 NAOKFM=F Big=F
 Integral buffers will be    131072 words long.
 Raffenetti 1 integral format.
 Two-electron integral symmetry is turned on.
 Leave Link  301 at Sun Sep 28 21:01:53 2025, MaxMem=  1572864000 cpu:               0.4 elap:               0.1
 (Enter /software/sse/easybuild/prefix/software/Gaussian/16.C.01-avx2-nsc1/g16/l302.exe)
 NPDir=0 NMtPBC=     1 NCelOv=     1 NCel=       1 NClECP=     1 NCelD=      1
         NCelK=      1 NCelE2=     1 NClLst=     1 CellRange=     0.0.
 One-electron integrals computed using PRISM.
 One-electron integral symmetry used in STVInt
 NBasis=   253 RedAO= T EigKep=  3.52D-05  NBF=   253
 NBsUse=   253 1.00D-06 EigRej= -1.00D+00 NBFU=   253
 Leave Link  302 at Sun Sep 28 21:01:53 2025, MaxMem=  1572864000 cpu:               1.2 elap:               0.2
 (Enter /software/sse/easybuild/prefix/software/Gaussian/16.C.01-avx2-nsc1/g16/l303.exe)
 DipDrv:  MaxL=1.
 Leave Link  303 at Sun Sep 28 21:01:53 2025, MaxMem=  1572864000 cpu:               0.3 elap:               0.1
 (Enter /software/sse/easybuild/prefix/software/Gaussian/16.C.01-avx2-nsc1/g16/l401.exe)
 ExpMin= 2.53D-02 ExpMax= 1.53D+04 ExpMxC= 5.22D+02 IAcc=3 IRadAn=         5 AccDes= 0.00D+00
 Harris functional with IExCor=  205 and IRadAn=       5 diagonalized for initial guess.
 HarFok:  IExCor=  205 AccDes= 0.00D+00 IRadAn=         5 IDoV= 1 UseB2=F ITyADJ=14
 ICtDFT=  3500011 ScaDFX=  1.000000  1.000000  1.000000  1.000000
 FoFCou: FMM=F IPFlag=           0 FMFlag=      100000 FMFlg1=           0
         NFxFlg=           0 DoJE=T BraDBF=F KetDBF=T FulRan=T
         wScrn=  0.000000 ICntrl=       500 IOpCl=  0 I1Cent=   200000004 NGrid=           0
         NMat0=    1 NMatS0=      1 NMatT0=    0 NMatD0=    1 NMtDS0=    0 NMtDT0=    0
 Petite list used in FoFCou.
 Harris En= -227.746341433015    
 JPrj=0 DoOrth=F DoCkMO=F.
 Leave Link  401 at Sun Sep 28 21:01:53 2025, MaxMem=  1572864000 cpu:               3.0 elap:               0.4
 (Enter /software/sse/easybuild/prefix/software/Gaussian/16.C.01-avx2-nsc1/g16/l502.exe)
 Keep R1 ints in memory in canonical form, NReq=529185064.
 FoFCou: FMM=F IPFlag=           0 FMFlag=           0 FMFlg1=           0
         NFxFlg=           0 DoJE=F BraDBF=F KetDBF=F FulRan=T
         wScrn=  0.000000 ICntrl=       600 IOpCl=  0 I1Cent=           0 NGrid=           0
         NMat0=    1 NMatS0=  32131 NMatT0=    0 NMatD0=    1 NMtDS0=    0 NMtDT0=    0
 Symmetry not used in FoFCou.
 Two-electron integral symmetry not used.
 Closed shell SCF:
 Using DIIS extrapolation, IDIIS=  1040.
 NGot=  1572864000 LenX=  1056468294 LenY=  1056380828
 Requested convergence on RMS density matrix=1.00D-08 within 128 cycles.
 Requested convergence on MAX density matrix=1.00D-06.
 Requested convergence on             energy=1.00D-06.
 No special actions if energy rises.

 Cycle   1  Pass 1  IDiag  1:
 E= -227.049874017136    
 DIIS: error= 3.72D-02 at cycle   1 NSaved=   1.
 NSaved= 1 IEnMin= 1 EnMin= -227.049874017136     IErMin= 1 ErrMin= 3.72D-02
 ErrMax= 3.72D-02  0.00D+00 EMaxC= 1.00D-01 BMatC= 5.49D-01 BMatP= 5.49D-01
 IDIUse=3 WtCom= 6.28D-01 WtEn= 3.72D-01
 Coeff-Com:  0.100D+01
 Coeff-En:   0.100D+01
 Coeff:      0.100D+01
 Gap=     0.561 Goal=   None    Shift=    0.000
 GapD=    0.561 DampG=2.000 DampE=0.500 DampFc=1.0000 IDamp=-1.
 RMSDP=2.17D-03 MaxDP=6.19D-02              OVMax= 1.49D-01

 Cycle   2  Pass 1  IDiag  1:
 E= -227.256081767687     Delta-E=       -0.206207750551 Rises=F Damp=F
 DIIS: error= 1.82D-02 at cycle   2 NSaved=   2.
 NSaved= 2 IEnMin= 2 EnMin= -227.256081767687     IErMin= 2 ErrMin= 1.82D-02
 ErrMax= 1.82D-02  0.00D+00 EMaxC= 1.00D-01 BMatC= 1.01D-01 BMatP= 5.49D-01
 IDIUse=3 WtCom= 8.18D-01 WtEn= 1.82D-01
 Coeff-Com:  0.252D+00 0.748D+00
 Coeff-En:   0.000D+00 0.100D+01
 Coeff:      0.206D+00 0.794D+00
 Gap=     0.357 Goal=   None    Shift=    0.000
 RMSDP=1.03D-03 MaxDP=3.38D-02 DE=-2.06D-01 OVMax= 6.97D-02

 Cycle   3  Pass 1  IDiag  1:
 E= -227.316490249894     Delta-E=       -0.060408482207 Rises=F Damp=F
 DIIS: error= 6.81D-03 at cycle   3 NSaved=   3.
 NSaved= 3 IEnMin= 3 EnMin= -227.316490249894     IErMin= 3 ErrMin= 6.81D-03
 ErrMax= 6.81D-03  0.00D+00 EMaxC= 1.00D-01 BMatC= 1.10D-02 BMatP= 1.01D-01
 IDIUse=3 WtCom= 9.32D-01 WtEn= 6.81D-02
 Coeff-Com: -0.166D-01 0.221D+00 0.795D+00
 Coeff-En:   0.000D+00 0.000D+00 0.100D+01
 Coeff:     -0.154D-01 0.206D+00 0.809D+00
 Gap=     0.330 Goal=   None    Shift=    0.000
 RMSDP=2.09D-04 MaxDP=7.15D-03 DE=-6.04D-02 OVMax= 2.03D-02

 Cycle   4  Pass 1  IDiag  1:
 E= -227.322894802299     Delta-E=       -0.006404552405 Rises=F Damp=F
 DIIS: error= 1.68D-03 at cycle   4 NSaved=   4.
 NSaved= 4 IEnMin= 4 EnMin= -227.322894802299     IErMin= 4 ErrMin= 1.68D-03
 ErrMax= 1.68D-03  0.00D+00 EMaxC= 1.00D-01 BMatC= 4.00D-04 BMatP= 1.10D-02
 IDIUse=3 WtCom= 9.83D-01 WtEn= 1.68D-02
 Coeff-Com: -0.109D-01 0.406D-01 0.248D+00 0.723D+00
 Coeff-En:   0.000D+00 0.000D+00 0.000D+00 0.100D+01
 Coeff:     -0.108D-01 0.399D-01 0.243D+00 0.727D+00
 Gap=     0.319 Goal=   None    Shift=    0.000
 RMSDP=5.30D-05 MaxDP=1.40D-03 DE=-6.40D-03 OVMax= 5.62D-03

 Cycle   5  Pass 1  IDiag  1:
 E= -227.323267109384     Delta-E=       -0.000372307085 Rises=F Damp=F
 DIIS: error= 3.00D-04 at cycle   5 NSaved=   5.
 NSaved= 5 IEnMin= 5 EnMin= -227.323267109384     IErMin= 5 ErrMin= 3.00D-04
 ErrMax= 3.00D-04  0.00D+00 EMaxC= 1.00D-01 BMatC= 1.73D-05 BMatP= 4.00D-04
 IDIUse=3 WtCom= 9.97D-01 WtEn= 3.00D-03
 Coeff-Com:  0.303D-02-0.223D-01-0.111D+00-0.970D-01 0.123D+01
 Coeff-En:   0.000D+00 0.000D+00 0.000D+00 0.000D+00 0.100D+01
 Coeff:      0.302D-02-0.222D-01-0.111D+00-0.967D-01 0.123D+01
 Gap=     0.319 Goal=   None    Shift=    0.000
 RMSDP=3.47D-05 MaxDP=1.31D-03 DE=-3.72D-04 OVMax= 2.70D-03

 Cycle   6  Pass 1  IDiag  1:
 E= -227.323298696200     Delta-E=       -0.000031586815 Rises=F Damp=F
 DIIS: error= 5.74D-05 at cycle   6 NSaved=   6.
 NSaved= 6 IEnMin= 6 EnMin= -227.323298696200     IErMin= 6 ErrMin= 5.74D-05
 ErrMax= 5.74D-05  0.00D+00 EMaxC= 1.00D-01 BMatC= 5.60D-07 BMatP= 1.73D-05
 IDIUse=1 WtCom= 1.00D+00 WtEn= 0.00D+00
 Coeff-Com:  0.494D-03-0.172D-02-0.822D-02-0.272D-01-0.637D-01 0.110D+01
 Coeff:      0.494D-03-0.172D-02-0.822D-02-0.272D-01-0.637D-01 0.110D+01
 Gap=     0.319 Goal=   None    Shift=    0.000
 RMSDP=6.04D-06 MaxDP=2.07D-04 DE=-3.16D-05 OVMax= 6.61D-04

 Cycle   7  Pass 1  IDiag  1:
 E= -227.323300175006     Delta-E=       -0.000001478806 Rises=F Damp=F
 DIIS: error= 1.88D-05 at cycle   7 NSaved=   7.
 NSaved= 7 IEnMin= 7 EnMin= -227.323300175006     IErMin= 7 ErrMin= 1.88D-05
 ErrMax= 1.88D-05  0.00D+00 EMaxC= 1.00D-01 BMatC= 6.47D-08 BMatP= 5.60D-07
 IDIUse=1 WtCom= 1.00D+00 WtEn= 0.00D+00
 Coeff-Com: -0.227D-03 0.177D-02 0.882D-02 0.690D-02-0.111D+00 0.112D+00
 Coeff-Com:  0.982D+00
 Coeff:     -0.227D-03 0.177D-02 0.882D-02 0.690D-02-0.111D+00 0.112D+00
 Coeff:      0.982D+00
 Gap=     0.319 Goal=   None    Shift=    0.000
 RMSDP=1.56D-06 MaxDP=3.97D-05 DE=-1.48D-06 OVMax= 1.71D-04

 Cycle   8  Pass 1  IDiag  1:
 E= -227.323300295499     Delta-E=       -0.000000120493 Rises=F Damp=F
 DIIS: error= 5.79D-06 at cycle   8 NSaved=   8.
 NSaved= 8 IEnMin= 8 EnMin= -227.323300295499     IErMin= 8 ErrMin= 5.79D-06
 ErrMax= 5.79D-06  0.00D+00 EMaxC= 1.00D-01 BMatC= 6.58D-09 BMatP= 6.47D-08
 IDIUse=1 WtCom= 1.00D+00 WtEn= 0.00D+00
 Coeff-Com: -0.551D-04 0.304D-03 0.109D-02 0.291D-02-0.414D-04-0.926D-01
 Coeff-Com:  0.257D-01 0.106D+01
 Coeff:     -0.551D-04 0.304D-03 0.109D-02 0.291D-02-0.414D-04-0.926D-01
 Coeff:      0.257D-01 0.106D+01
 Gap=     0.319 Goal=   None    Shift=    0.000
 RMSDP=6.81D-07 MaxDP=3.18D-05 DE=-1.20D-07 OVMax= 5.41D-05

 Cycle   9  Pass 1  IDiag  1:
 E= -227.323300309070     Delta-E=       -0.000000013571 Rises=F Damp=F
 DIIS: error= 2.21D-06 at cycle   9 NSaved=   9.
 NSaved= 9 IEnMin= 9 EnMin= -227.323300309070     IErMin= 9 ErrMin= 2.21D-06
 ErrMax= 2.21D-06  0.00D+00 EMaxC= 1.00D-01 BMatC= 1.50D-09 BMatP= 6.58D-09
 IDIUse=1 WtCom= 1.00D+00 WtEn= 0.00D+00
 Coeff-Com:  0.730D-05-0.910D-04-0.645D-03 0.190D-03 0.118D-01-0.375D-01
 Coeff-Com: -0.113D+00 0.336D+00 0.803D+00
 Coeff:      0.730D-05-0.910D-04-0.645D-03 0.190D-03 0.118D-01-0.375D-01
 Coeff:     -0.113D+00 0.336D+00 0.803D+00
 Gap=     0.319 Goal=   None    Shift=    0.000
 RMSDP=2.28D-07 MaxDP=1.07D-05 DE=-1.36D-08 OVMax= 1.53D-05

 Cycle  10  Pass 1  IDiag  1:
 E= -227.323300311024     Delta-E=       -0.000000001954 Rises=F Damp=F
 DIIS: error= 1.02D-06 at cycle  10 NSaved=  10.
 NSaved=10 IEnMin=10 EnMin= -227.323300311024     IErMin=10 ErrMin= 1.02D-06
 ErrMax= 1.02D-06  0.00D+00 EMaxC= 1.00D-01 BMatC= 1.56D-10 BMatP= 1.50D-09
 IDIUse=1 WtCom= 1.00D+00 WtEn= 0.00D+00
 Coeff-Com:  0.101D-04-0.646D-04-0.284D-03-0.421D-03 0.152D-02 0.130D-01
 Coeff-Com: -0.311D-01-0.115D+00 0.114D+00 0.102D+01
 Coeff:      0.101D-04-0.646D-04-0.284D-03-0.421D-03 0.152D-02 0.130D-01
 Coeff:     -0.311D-01-0.115D+00 0.114D+00 0.102D+01
 Gap=     0.319 Goal=   None    Shift=    0.000
 RMSDP=1.01D-07 MaxDP=4.02D-06 DE=-1.95D-09 OVMax= 1.08D-05

 Cycle  11  Pass 1  IDiag  1:
 E= -227.323300311404     Delta-E=       -0.000000000379 Rises=F Damp=F
 DIIS: error= 2.82D-07 at cycle  11 NSaved=  11.
 NSaved=11 IEnMin=11 EnMin= -227.323300311404     IErMin=11 ErrMin= 2.82D-07
 ErrMax= 2.82D-07  0.00D+00 EMaxC= 1.00D-01 BMatC= 1.74D-11 BMatP= 1.56D-10
 IDIUse=1 WtCom= 1.00D+00 WtEn= 0.00D+00
 Coeff-Com: -0.153D-05 0.154D-04 0.959D-04 0.466D-04-0.144D-02 0.260D-02
 Coeff-Com:  0.138D-01-0.141D-01-0.136D+00-0.134D+00 0.127D+01
 Coeff:     -0.153D-05 0.154D-04 0.959D-04 0.466D-04-0.144D-02 0.260D-02
 Coeff:      0.138D-01-0.141D-01-0.136D+00-0.134D+00 0.127D+01
 Gap=     0.319 Goal=   None    Shift=    0.000
 RMSDP=3.59D-08 MaxDP=1.28D-06 DE=-3.79D-10 OVMax= 4.69D-06

 Cycle  12  Pass 1  IDiag  1:
 E= -227.323300311460     Delta-E=       -0.000000000056 Rises=F Damp=F
 DIIS: error= 8.65D-08 at cycle  12 NSaved=  12.
 NSaved=12 IEnMin=12 EnMin= -227.323300311460     IErMin=12 ErrMin= 8.65D-08
 ErrMax= 8.65D-08  0.00D+00 EMaxC= 1.00D-01 BMatC= 1.48D-12 BMatP= 1.74D-11
 IDIUse=1 WtCom= 1.00D+00 WtEn= 0.00D+00
 Coeff-Com: -0.513D-06 0.163D-05-0.415D-05 0.326D-04 0.350D-03-0.246D-02
 Coeff-Com: -0.935D-03 0.185D-01 0.234D-01-0.260D-01-0.450D+00 0.144D+01
 Coeff:     -0.513D-06 0.163D-05-0.415D-05 0.326D-04 0.350D-03-0.246D-02
 Coeff:     -0.935D-03 0.185D-01 0.234D-01-0.260D-01-0.450D+00 0.144D+01
 Gap=     0.319 Goal=   None    Shift=    0.000
 RMSDP=1.56D-08 MaxDP=5.55D-07 DE=-5.62D-11 OVMax= 1.74D-06

 Cycle  13  Pass 1  IDiag  1:
 E= -227.323300311466     Delta-E=       -0.000000000006 Rises=F Damp=F
 DIIS: error= 2.49D-08 at cycle  13 NSaved=  13.
 NSaved=13 IEnMin=13 EnMin= -227.323300311466     IErMin=13 ErrMin= 2.49D-08
 ErrMax= 2.49D-08  0.00D+00 EMaxC= 1.00D-01 BMatC= 1.14D-13 BMatP= 1.48D-12
 IDIUse=1 WtCom= 1.00D+00 WtEn= 0.00D+00
 Coeff-Com:  0.236D-06-0.152D-05-0.382D-05-0.143D-04-0.293D-04 0.680D-03
 Coeff-Com: -0.504D-03-0.481D-02-0.327D-02 0.202D-01 0.763D-01-0.535D+00
 Coeff-Com:  0.145D+01
 Coeff:      0.236D-06-0.152D-05-0.382D-05-0.143D-04-0.293D-04 0.680D-03
 Coeff:     -0.504D-03-0.481D-02-0.327D-02 0.202D-01 0.763D-01-0.535D+00
 Coeff:      0.145D+01
 Gap=     0.319 Goal=   None    Shift=    0.000
 RMSDP=3.76D-09 MaxDP=1.04D-07 DE=-6.25D-12 OVMax= 5.18D-07

 SCF Done:  E(RHF) =  -227.323300311     A.U. after   13 cycles
            NFock= 13  Conv=0.38D-08     -V/T= 2.0024
 KE= 2.267827933621D+02 PE=-7.645449923796D+02 EE= 2.001238091486D+02
 Leave Link  502 at Sun Sep 28 21:02:07 2025, MaxMem=  1572864000 cpu:              44.4 elap:              13.3
 (Enter /software/sse/easybuild/prefix/software/Gaussian/16.C.01-avx2-nsc1/g16/l801.exe)
 Range of M.O.s used for correlation:     1   253
 NBasis=   253 NAE=    16 NBE=    16 NFC=     0 NFV=     0
 NROrb=    253 NOA=    16 NOB=    16 NVA=   237 NVB=   237

 **** Warning!!: The largest alpha MO coefficient is  0.41628743D+02

 Leave Link  801 at Sun Sep 28 21:02:07 2025, MaxMem=  1572864000 cpu:               0.2 elap:               0.0
 (Enter /software/sse/easybuild/prefix/software/Gaussian/16.C.01-avx2-nsc1/g16/l1101.exe)
 Using compressed storage, NAtomX=     7.
 Will process      8 centers per pass.
 Leave Link 1101 at Sun Sep 28 21:02:07 2025, MaxMem=  1572864000 cpu:               1.2 elap:               0.2
 (Enter /software/sse/easybuild/prefix/software/Gaussian/16.C.01-avx2-nsc1/g16/l1102.exe)
 Symmetrizing basis deriv contribution to polar:
 IMax=3 JMax=2 DiffMx= 0.00D+00
 Leave Link 1102 at Sun Sep 28 21:02:07 2025, MaxMem=  1572864000 cpu:               0.2 elap:               0.1
 (Enter /software/sse/easybuild/prefix/software/Gaussian/16.C.01-avx2-nsc1/g16/l1110.exe)
 Forming Gx(P) for the SCF density, NAtomX=     7.
 Integral derivatives from FoFJK, PRISM(SPDF).
 Do as many integral derivatives as possible in FoFJK.
 G2DrvN: MDV=    1572863143.
 G2DrvN: will do     8 centers at a time, making    1 passes.
 Calling FoFCou, ICntrl=  3107 FMM=F I1Cent=   0 AccDes= 0.00D+00.
 FoFJK:  IHMeth= 1 ICntrl=    3107 DoSepK=F KAlg= 0 I1Cent=           0 FoldK=F
 IRaf=         0 NMat=       1 IRICut=       1 DoRegI=T DoRafI=F ISym2E= 0 IDoP0=0 IntGTp=1.
 FoFCou: FMM=F IPFlag=           0 FMFlag=      100000 FMFlg1=           0
         NFxFlg=           0 DoJE=F BraDBF=F KetDBF=F FulRan=T
         wScrn=  0.000000 ICntrl=      3107 IOpCl=  0 I1Cent=           0 NGrid=           0
         NMat0=    1 NMatS0=      1 NMatT0=    0 NMatD0=    1 NMtDS0=    0 NMtDT0=    0
 Symmetry not used in FoFCou.
 End of G2Drv F.D. properties file   721 does not exist.
 End of G2Drv F.D. properties file   722 does not exist.
 End of G2Drv F.D. properties file   788 does not exist.
 Leave Link 1110 at Sun Sep 28 21:02:24 2025, MaxMem=  1572864000 cpu:             136.9 elap:              17.3
 (Enter /software/sse/easybuild/prefix/software/Gaussian/16.C.01-avx2-nsc1/g16/l1002.exe)
 Minotr:  Closed shell wavefunction.
          IDoAtm=1111111
          Direct CPHF calculation.
          Differentiating once with respect to electric field.
                with respect to dipole field.
          Differentiating once with respect to nuclear coordinates.
          Requested convergence is 1.0D-08 RMS, and 1.0D-07 maximum.
          Secondary convergence is 1.0D-12 RMS, and 1.0D-12 maximum.
          NewPWx=T KeepS1=F KeepF1=F KeepIn=T MapXYZ=F SortEE=F KeepMc=T.
 Keep R1 ints in memory in canonical form, NReq=529186615.
 FoFCou: FMM=F IPFlag=           0 FMFlag=           0 FMFlg1=           0
         NFxFlg=           0 DoJE=F BraDBF=F KetDBF=F FulRan=T
         wScrn=  0.000000 ICntrl=       600 IOpCl=  0 I1Cent=           0 NGrid=           0
         NMat0=    1 NMatS0=  32131 NMatT0=    0 NMatD0=    1 NMtDS0=    0 NMtDT0=    0
 Symmetry not used in FoFCou.
 Two-electron integral symmetry not used.
          MDV=    1572864000 using IRadAn=       1.
          Solving linear equations simultaneously, MaxMat=       0.
          There are    24 degrees of freedom in the 1st order CPHF.  IDoFFX=6 NUNeed=     3.
     21 vectors produced by pass  0 Test12= 1.58D-14 4.17D-09 XBig12= 1.22D+01 1.20D+00.
 AX will form    21 AO Fock derivatives at one time.
     21 vectors produced by pass  1 Test12= 1.58D-14 4.17D-09 XBig12= 1.30D+00 2.22D-01.
     21 vectors produced by pass  2 Test12= 1.58D-14 4.17D-09 XBig12= 4.47D-02 3.76D-02.
     21 vectors produced by pass  3 Test12= 1.58D-14 4.17D-09 XBig12= 1.11D-03 5.42D-03.
     21 vectors produced by pass  4 Test12= 1.58D-14 4.17D-09 XBig12= 2.11D-05 8.24D-04.
     21 vectors produced by pass  5 Test12= 1.58D-14 4.17D-09 XBig12= 2.56D-07 8.98D-05.
     21 vectors produced by pass  6 Test12= 1.58D-14 4.17D-09 XBig12= 2.34D-09 8.03D-06.
     12 vectors produced by pass  7 Test12= 1.58D-14 4.17D-09 XBig12= 1.82D-11 8.05D-07.
      4 vectors produced by pass  8 Test12= 1.58D-14 4.17D-09 XBig12= 1.20D-13 5.52D-08.
 InvSVY:  IOpt=1 It=  1 EMax= 8.88D-16
 Solved reduced A of dimension   163 with    24 vectors.
 FullF1:  Do perturbations      1 to       3.
 Isotropic polarizability for W=    0.000000       39.06 Bohr**3.
 End of Minotr F.D. properties file   721 does not exist.
 End of Minotr F.D. properties file   722 does not exist.
 End of Minotr F.D. properties file   788 does not exist.
 Leave Link 1002 at Sun Sep 28 21:02:38 2025, MaxMem=  1572864000 cpu:             111.2 elap:              14.0
 (Enter /software/sse/easybuild/prefix/software/Gaussian/16.C.01-avx2-nsc1/g16/l601.exe)
 Copying SCF densities to generalized density rwf, IOpCl= 0 IROHF=0.
 SCF density gives NOpUse=  1 NOpAll=  1.

 **********************************************************************

            Population analysis using the SCF Density.

 **********************************************************************

 Orbital symmetries:
 BldTbl:  Degeneracy threshold= 1.00D-02
       Occupied  (A) (A) (A) (A) (A) (A) (A) (A) (A) (A) (A) (A)
                 (A) (A) (A) (A)
       Virtual   (A) (A) (A) (A) (A) (A) (A) (A) (A) (A) (A) (A)
                 (A) (A) (A) (A) (A) (A) (A) (A) (A) (A) (A) (A)
                 (A) (A) (A) (A) (A) (A) (A) (A) (A) (A) (A) (A)
                 (A) (A) (A) (A) (A) (A) (A) (A) (A) (A) (A) (A)
                 (A) (A) (A) (A) (A) (A) (A) (A) (A) (A) (A) (A)
                 (A) (A) (A) (A) (A) (A) (A) (A) (A) (A) (A) (A)
                 (A) (A) (A) (A) (A) (A) (A) (A) (A) (A) (A) (A)
                 (A) (A) (A) (A) (A) (A) (A) (A) (A) (A) (A) (A)
                 (A) (A) (A) (A) (A) (A) (A) (A) (A) (A) (A) (A)
                 (A) (A) (A) (A) (A) (A) (A) (A) (A) (A) (A) (A)
                 (A) (A) (A) (A) (A) (A) (A) (A) (A) (A) (A) (A)
                 (A) (A) (A) (A) (A) (A) (A) (A) (A) (A) (A) (A)
                 (A) (A) (A) (A) (A) (A) (A) (A) (A) (A) (A) (A)
                 (A) (A) (A) (A) (A) (A) (A) (A) (A) (A) (A) (A)
                 (A) (A) (A) (A) (A) (A) (A) (A) (A) (A) (A) (A)
                 (A) (A) (A) (A) (A) (A) (A) (A) (A) (A) (A) (A)
                 (A) (A) (A) (A) (A) (A) (A) (A) (A) (A) (A) (A)
                 (A) (A) (A) (A) (A) (A) (A) (A) (A) (A) (A) (A)
                 (A) (A) (A) (A) (A) (A) (A) (A) (A) (A) (A) (A)
                 (A) (A) (A) (A) (A) (A) (A) (A) (A)
 The electronic state is 1-A.
 Alpha  occ. eigenvalues --  -20.29198 -20.28897 -11.14094 -11.05041  -1.14557
 Alpha  occ. eigenvalues --   -1.05005  -0.79319  -0.51324  -0.41538  -0.40925
 Alpha  occ. eigenvalues --   -0.40687  -0.35667  -0.31057  -0.20263  -0.19496
 Alpha  occ. eigenvalues --   -0.18661
 Alpha virt. eigenvalues --    0.13226   0.14359   0.14442   0.18512   0.22166
 Alpha virt. eigenvalues --    0.22962   0.23089   0.24958   0.25032   0.26636
 Alpha virt. eigenvalues --    0.30695   0.32920   0.33235   0.35866   0.36003
 Alpha virt. eigenvalues --    0.36570   0.38499   0.39061   0.41202   0.42487
 Alpha virt. eigenvalues --    0.43039   0.45829   0.45957   0.48916   0.49196
 Alpha virt. eigenvalues --    0.49317   0.49970   0.51692   0.52997   0.54965
 Alpha virt. eigenvalues --    0.56387   0.58047   0.58787   0.59198   0.60453
 Alpha virt. eigenvalues --    0.61235   0.63909   0.68242   0.68392   0.68536
 Alpha virt. eigenvalues --    0.72509   0.73544   0.76287   0.79243   0.82575
 Alpha virt. eigenvalues --    0.84756   0.90820   0.92442   0.92800   0.93869
 Alpha virt. eigenvalues --    0.95361   0.96909   0.97480   1.01954   1.02549
 Alpha virt. eigenvalues --    1.02793   1.03695   1.05732   1.06816   1.06930
 Alpha virt. eigenvalues --    1.10279   1.11116   1.11264   1.11999   1.15089
 Alpha virt. eigenvalues --    1.16477   1.17971   1.18822   1.21895   1.22030
 Alpha virt. eigenvalues --    1.24600   1.26814   1.27432   1.27634   1.28820
 Alpha virt. eigenvalues --    1.29488   1.34336   1.35685   1.36588   1.37717
 Alpha virt. eigenvalues --    1.41409   1.41659   1.43377   1.44770   1.51586
 Alpha virt. eigenvalues --    1.56778   1.60032   1.60713   1.60819   1.65580
 Alpha virt. eigenvalues --    1.66921   1.70355   1.72945   1.73703   1.76939
 Alpha virt. eigenvalues --    1.78094   1.79890   1.82859   1.83680   1.85247
 Alpha virt. eigenvalues --    1.86667   1.92971   1.93644   1.95501   2.00095
 Alpha virt. eigenvalues --    2.00989   2.03186   2.08357   2.12301   2.14737
 Alpha virt. eigenvalues --    2.15498   2.24889   2.25046   2.28330   2.28681
 Alpha virt. eigenvalues --    2.33231   2.38298   2.38759   2.44640   2.48397
 Alpha virt. eigenvalues --    2.50779   2.54675   2.59491   2.67265   2.68939
 Alpha virt. eigenvalues --    2.69309   2.73385   2.75016   2.77516   2.79527
 Alpha virt. eigenvalues --    2.80038   2.82078   2.86171   2.93098   2.97040
 Alpha virt. eigenvalues --    2.97699   3.00478   3.05970   3.11986   3.16922
 Alpha virt. eigenvalues --    3.17950   3.22769   3.24368   3.25403   3.35062
 Alpha virt. eigenvalues --    3.38640   3.48076   3.55718   3.59880   3.63138
 Alpha virt. eigenvalues --    3.66986   3.69499   3.70765   3.75488   3.79399
 Alpha virt. eigenvalues --    3.81201   3.85856   3.92903   3.94580   3.97705
 Alpha virt. eigenvalues --    4.03699   4.07133   4.11749   4.12747   4.13421
 Alpha virt. eigenvalues --    4.22545   4.23541   4.25177   4.25676   4.31292
 Alpha virt. eigenvalues --    4.31506   4.37409   4.46384   4.46566   4.49695
 Alpha virt. eigenvalues --    4.55490   4.55739   4.64739   4.69490   4.75300
 Alpha virt. eigenvalues --    4.78917   4.82374   4.93562   4.96229   4.97713
 Alpha virt. eigenvalues --    5.03578   5.06417   5.10403   5.18077   5.20533
 Alpha virt. eigenvalues --    5.21301   5.28162   5.39099   5.44188   5.47910
 Alpha virt. eigenvalues --    5.50835   5.59033   5.77582   5.80268   5.83838
 Alpha virt. eigenvalues --    5.86735   6.00598   6.16091   6.26765   6.29155
 Alpha virt. eigenvalues --    6.31054   6.56015   6.81315   6.85837   6.88044
 Alpha virt. eigenvalues --    6.90345   6.94575   6.94782   7.09455   7.12141
 Alpha virt. eigenvalues --    7.14513   7.22779   7.26365   7.32068   7.38521
 Alpha virt. eigenvalues --    7.50553   7.51944   7.54513   7.57693   7.70292
 Alpha virt. eigenvalues --    7.73991   7.84820   7.88046   7.90212   8.01390
 Alpha virt. eigenvalues --    8.03740   8.10285   8.20691  13.92047  14.60908
 Alpha virt. eigenvalues --   16.70474  18.40833
          Condensed to atoms (all electrons):
               1          2          3          4          5          6
     1  C    5.500279   0.190821  -0.096539  -0.119908   0.380795   0.394776
     2  C    0.190821   4.579751   0.387543   0.406592  -0.009321   0.000213
     3  O   -0.096539   0.387543   8.574951  -0.107987   0.015100  -0.001504
     4  O   -0.119908   0.406592  -0.107987   8.584137  -0.002388   0.015319
     5  H    0.380795  -0.009321   0.015100  -0.002388   0.315639   0.006636
     6  H    0.394776   0.000213  -0.001504   0.015319   0.006636   0.333598
     7  H    0.395628  -0.000395  -0.002040   0.015173   0.006480   0.014366
               7
     1  C    0.395628
     2  C   -0.000395
     3  O   -0.002040
     4  O    0.015173
     5  H    0.006480
     6  H    0.014366
     7  H    0.332922
 Mulliken charges:
               1
     1  C   -0.645852
     2  C    0.444796
     3  O   -0.769524
     4  O   -0.790938
     5  H    0.287059
     6  H    0.236595
     7  H    0.237864
 Sum of Mulliken charges =  -1.00000
 Mulliken charges with hydrogens summed into heavy atoms:
               1
     1  C    0.115666
     2  C    0.444796
     3  O   -0.769524
     4  O   -0.790938
 APT charges:
               1
     1  C    0.031627
     2  C    1.416192
     3  O   -1.135085
     4  O   -1.140015
     5  H   -0.059319
     6  H   -0.056728
     7  H   -0.056672
 Sum of APT charges =  -1.00000
 APT charges with hydrogens summed into heavy atoms:
               1
     1  C   -0.141092
     2  C    1.416192
     3  O   -1.135085
     4  O   -1.140015
 DipInt: DoE/N= T F RetVal/Mat= T F Init=T NMatP=  1 IDeriv=0 Min/MaxMlt=  0  4
 Entering OneElI...
 OneElI was handed  1572639677 working-precision words.
 Multipole integrals L=0 to 4 MinM= 0 MaxM= 0.
 Requested accuracy = 0.1000D-12
 ShPair: Thresh= 1.00D-13 NBox=     0 BxSize= 0.00D+00 RnKept= 6.26D+00
         NSMCal=                 3486 NSMKep=                3481
 PrmmSu-InSpLW:  IPartL=    0 NPrtUS=    1 NPrtUL=    1 DoSpLW=F IThBeg=    0 IThEnd=    0 NThAct=    1.
 PrSmSu:  IncTry=   512 NBBP=           3481 NTPThr=   100 NPartT=    1 Incr=          34 LDynOK=F GPUOK=F.
 PrsmSu:  NPrtUS=   1 ThrOK=F IAlg=2 LenDen=           0 ISkipM=0 DoSpLW=F IThBeg=    0 IThEnd=    0.
 Prism:   IPart=     0 DynPar=F LinDyn=F Incr=          34.
 PRISM was handed  1572377462 working-precision words and  3481 shell-pairs
 IPart=  0 NShTot=        3481 NBatch=          71 AvBLen=        49.0
 PrsmSu-ThDecC:  IPartSL=    0    0 NPrtUSL=    1    1 IThBeg=    0 IThEnd=    0 CPU=   -1 GPU=   -1 NThAct=    1.
 PrSmSu:  NxtVal=             35.
 Electronic moments (au):
        -32.00000000         -1.70538377         -0.07403363         -0.00061956
       -129.21414630       -109.27224954        -24.56524721          0.12149869
         -0.00282736          0.00022679        161.90667022         -6.61626908
         -0.26564558        -99.36325975         15.03173403         -0.00530880
         18.89490960         -4.25447414          0.20866378         -0.00545850
      -1203.91849169       -799.91288651       -106.46067661          2.32111340
         -0.09110803        -21.20150310         -0.05642697          0.84201628
          0.00438020       -375.37512677       -156.49333916        -85.39060686
          0.05678740         -0.79200874         13.62992277
 Electronic spatial extent (au):  <R**2>=            263.0516
 DipInt: DoE/N= F T RetVal/Mat= T F Init=T NMatP=  1 IDeriv=0 Min/MaxMlt=  0  4
 Nuclear    moments (au):
         31.00000000          0.00000000         -0.00000000          0.00000000
        105.37476087         81.99534428          5.53312004          0.00000000
          0.00000000         -0.00000000       -158.20582690          4.65177768
          0.29832117         89.72290088        -13.99430124          0.00942212
        -18.20366038          4.94803690         -0.24630530          0.00635009
        672.41373901        382.02779230         15.30946984         -3.08465374
          0.07106456         23.54081361          0.06184253         -0.96057514
          0.00371074        217.47679950         59.88925486          4.43768085
         -0.06499058          0.92812297        -16.27932060
 Total      moments (au):
         -1.00000000         -1.70538377         -0.07403363         -0.00061956
        -23.83938543        -27.27690526        -19.03212717          0.12149869
         -0.00282736          0.00022679          3.70084331         -1.96449140
          0.03267559         -9.64035887          1.03743279          0.00411332
          0.69124921          0.69356276         -0.03764152          0.00089160
       -531.50475268       -417.88509421        -91.15120677         -0.76354035
         -0.02004347          2.33931051          0.00541556         -0.11855886
          0.00809094       -157.89832727        -96.60408430        -80.95292601
         -0.00820318          0.13611423         -2.64939783
 Charge=             -1.0000 electrons
 Dipole moment (field-independent basis, Debye):
    X=             -4.3347    Y=             -0.1882    Z=             -0.0016  Tot=              4.3387
 Quadrupole moment (field-independent basis, Debye-Ang):
   XX=            -32.0648   YY=            -36.6884   ZZ=            -25.5989
   XY=              0.1634   XZ=             -0.0038   YZ=              0.0003
 Traceless Quadrupole moment (field-independent basis, Debye-Ang):
   XX=             -0.6141   YY=             -5.2377   ZZ=              5.8518
   XY=              0.1634   XZ=             -0.0038   YZ=              0.0003
 Octapole moment (field-independent basis, Debye-Ang**2):
  XXX=              2.6341  YYY=             -1.3982  ZZZ=              0.0233  XYY=             -6.8616
  XXY=              0.7384  XXZ=              0.0029  XZZ=              0.4920  YZZ=              0.4937
  YYZ=             -0.0268  XYZ=              0.0006
 Hexadecapole moment (field-independent basis, Debye-Ang**3):
 XXXX=           -200.1902 YYYY=           -157.3956 ZZZZ=            -34.3319 XXXY=             -0.2876
 XXXZ=             -0.0075 YYYX=              0.8811 YYYZ=              0.0020 ZZZX=             -0.0447
 ZZZY=              0.0030 XXYY=            -59.4721 XXZZ=            -36.3857 YYZZ=            -30.4908
 XXYZ=             -0.0031 YYXZ=              0.0513 ZZXY=             -0.9979
 N-N= 1.103150895575D+02 E-N=-7.645449922990D+02  KE= 2.267827933621D+02
 SetAtRh:  ITypeU=  23 NETotI=      -1 ICharg=  0 NETot=      31.
 StAtR1:  I=    1 I1=    1 IA=  6 C=   6.0 OKShel=TTT
                                                  SSP
                                                  222
 StAtR1:  I=    2 I1=    2 IA=  6 C=   6.0 OKShel=TTT
                                                  SSP
                                                  222
 StAtR1:  I=    3 I1=    3 IA=  8 C=   8.0 OKShel=TTT
                                                  SSP
                                                  224
 StAtR1:  I=    4 I1=    4 IA=  8 C=   8.0 OKShel=TTT
                                                  SSP
                                                  224
 StAtR1:  I=    5 I1=    5 IA=  1 C=   1.0 OKShel=T
                                                  S
                                                  1
 StAtR1:  I=    6 I1=    6 IA=  1 C=   1.0 OKShel=T
                                                  S
                                                  1
 StAtR1:  I=    7 I1=    7 IA=  1 C=   1.0 OKShel=T
                                                  S
                                                  1
          I=    1 IA=  6 I1=    1 NAtG=23 NE=   6.000 C=   6.000 Err= 1.75D-11
          I=    2 IA=  6 I1=    2 NAtG=23 NE=   6.000 C=   6.000 Err= 1.75D-11
          I=    3 IA=  8 I1=    3 NAtG=23 NE=   8.000 C=   8.000 Err=-3.68D-11
          I=    4 IA=  8 I1=    4 NAtG=23 NE=   8.000 C=   8.000 Err=-3.68D-11
          I=    5 IA=  1 I1=    5 NAtG=20 NE=   1.000 C=   1.000 Err= 2.80D-12
          I=    6 IA=  1 I1=    6 NAtG=20 NE=   1.000 C=   1.000 Err= 2.80D-12
          I=    7 IA=  1 I1=    7 NAtG=20 NE=   1.000 C=   1.000 Err= 2.80D-12
 Pruned (  99, 590) grid will be used in numerical quadrature.
 IPart=  0 IRanGd=          0 ScrnBf=T ScrnGd=T RCrit=4.00D+00 DoMicB=T.
 CutRad = 1000.00    CtRdIn =    0.00    XCrit =  15.00   ICut = 0
 Pruned (  99, 590) grid will be used in numerical quadrature.
 Pruned (  99, 590) grid will be used in numerical quadrature.
 IPart=  0 Atom number   1 atomic number  6 has       23114 grid points.
 Pruned (  99, 590) grid will be used in numerical quadrature.
 IPart=  0 Atom   1 batch    1 overlaps    7 atoms,    80 shells and     7 DB shells.   NGrid=      2408
 Pruned (  99, 590) grid will be used in numerical quadrature.
 Pruned (  99, 590) grid will be used in numerical quadrature.
 Pruned (  99, 590) grid will be used in numerical quadrature.
 IPart=  1 IRanGd=          0 ScrnBf=T ScrnGd=T RCrit=4.00D+00 DoMicB=T.
 IPart=  3 IRanGd=          0 ScrnBf=T ScrnGd=T RCrit=4.00D+00 DoMicB=T.
 CutRad = 1000.00    CtRdIn =    0.00    XCrit =  15.00   ICut = 0
 IPart=  6 IRanGd=          0 ScrnBf=T ScrnGd=T RCrit=4.00D+00 DoMicB=T.
 IPart=  7 IRanGd=          0 ScrnBf=T ScrnGd=T RCrit=4.00D+00 DoMicB=T.
 Pruned (  99, 590) grid will be used in numerical quadrature.
 CutRad = 1000.00    CtRdIn =    0.00    XCrit =  15.00   ICut = 0
 Symmetry reduced    86 angular points to    86 for atom    1.
 IPart=  4 IRanGd=          0 ScrnBf=T ScrnGd=T RCrit=4.00D+00 DoMicB=T.
 CutRad = 1000.00    CtRdIn =    0.00    XCrit =  15.00   ICut = 0
 IPart=  5 IRanGd=          0 ScrnBf=T ScrnGd=T RCrit=4.00D+00 DoMicB=T.
 CutRad = 1000.00    CtRdIn =    0.00    XCrit =  15.00   ICut = 0
 CutRad = 1000.00    CtRdIn =    0.00    XCrit =  15.00   ICut = 0
 Pruned (  99, 590) grid will be used in numerical quadrature.
 CutRad = 1000.00    CtRdIn =    0.00    XCrit =  15.00   ICut = 0
 IPart=  2 IRanGd=          0 ScrnBf=T ScrnGd=T RCrit=4.00D+00 DoMicB=T.
 CutRad = 1000.00    CtRdIn =    0.00    XCrit =  15.00   ICut = 0
 Pruned (  99, 590) grid will be used in numerical quadrature.
 IPart=  1 Atom number   1 atomic number  6 has       23114 grid points.
 IPart=  1 Atom   1 batch    2 overlaps    7 atoms,    81 shells and     7 DB shells.   NGrid=      2522
 Pruned (  99, 590) grid will be used in numerical quadrature.
 Symmetry reduced   194 angular points to   194 for atom    1.
 IPart=  6 Atom number   1 atomic number  6 has       23114 grid points.
 Pruned (  99, 590) grid will be used in numerical quadrature.
 Pruned (  99, 590) grid will be used in numerical quadrature.
 Pruned (  99, 590) grid will be used in numerical quadrature.
 IPart=  5 Atom number   1 atomic number  6 has       23114 grid points.
 IPart=  6 Atom   1 batch    3 overlaps    7 atoms,    81 shells and     7 DB shells.   NGrid=      2114
 Pruned (  99, 590) grid will be used in numerical quadrature.
 IPart=  5 Atom   1 batch    5 overlaps    7 atoms,    81 shells and     7 DB shells.   NGrid=      1180
 Pruned (  99, 590) grid will be used in numerical quadrature.
 IPart=  4 Atom number   1 atomic number  6 has       23114 grid points.
 Symmetry reduced   590 angular points to   590 for atom    1.
 IPart=  4 Atom   1 batch    4 overlaps    7 atoms,    81 shells and     7 DB shells.   NGrid=      1180
 IPart=  2 Atom number   1 atomic number  6 has       23114 grid points.
 IPart=  7 Atom number   1 atomic number  6 has       23114 grid points.
 Symmetry reduced   590 angular points to   590 for atom    1.
 IPart=  7 Atom   1 batch    7 overlaps    7 atoms,    83 shells and     7 DB shells.   NGrid=      1180
 IPart=  2 Atom   1 batch    8 overlaps    7 atoms,    83 shells and     7 DB shells.   NGrid=      1180
 Symmetry reduced   590 angular points to   590 for atom    1.
 Symmetry reduced   302 angular points to   302 for atom    1.
 Symmetry reduced   590 angular points to   590 for atom    1.
 IPart=  3 Atom number   1 atomic number  6 has       23114 grid points.
 IPart=  3 Atom   1 batch    6 overlaps    7 atoms,    81 shells and     7 DB shells.   NGrid=      1180
 Symmetry reduced   590 angular points to   590 for atom    1.
 IPart=  2 Atom   1 batch    9 overlaps    7 atoms,    83 shells and     7 DB shells.   NGrid=      1180
 IPart=  4 Atom   1 batch   10 overlaps    7 atoms,    83 shells and     7 DB shells.   NGrid=      1180
 IPart=  7 Atom   1 batch   11 overlaps    7 atoms,    82 shells and     7 DB shells.   NGrid=      1180
 IPart=  3 Atom   1 batch   12 overlaps    7 atoms,    82 shells and     7 DB shells.   NGrid=       590
 IPart=  5 Atom   1 batch   13 overlaps    7 atoms,    82 shells and     7 DB shells.   NGrid=       604
 Symmetry reduced   302 angular points to   302 for atom    1.
 IPart=  3 Atom   1 batch   14 overlaps    7 atoms,    82 shells and     7 DB shells.   NGrid=       604
 Symmetry reduced   302 angular points to   302 for atom    1.
 IPart=  5 Atom   1 batch   15 overlaps    7 atoms,    78 shells and     7 DB shells.   NGrid=       604
 IPart=  0 Atom   1 batch   16 overlaps    7 atoms,    69 shells and     7 DB shells.   NGrid=       604
 Symmetry reduced   302 angular points to   302 for atom    1.
 IPart=  6 Atom   1 batch   17 overlaps    7 atoms,    57 shells and     7 DB shells.   NGrid=       604
 IPart=  1 Atom   1 batch   18 overlaps    7 atoms,    44 shells and     7 DB shells.   NGrid=       604
 Symmetry reduced   302 angular points to   302 for atom    1.
 IPart=  7 Atom   1 batch   19 overlaps    7 atoms,    30 shells and     7 DB shells.   NGrid=       604
 Symmetry reduced   302 angular points to   302 for atom    1.
 IPart=  0 Atom   1 batch   20 overlaps    7 atoms,    20 shells and     1 DB shells.   NGrid=       604
 IPart=  4 Atom   1 batch   21 overlaps    7 atoms,    11 shells and     0 DB shells.   NGrid=       604
 IPart=  5 Atom   1 batch   22 overlaps    7 atoms,     4 shells and     0 DB shells.   NGrid=       604
 Symmetry reduced   302 angular points to   302 for atom    1.
 Pruned (  99, 590) grid will be used in numerical quadrature.
 IPart=  6 Atom number   2 atomic number  6 has       23114 grid points.
 IPart=  6 Atom   2 batch    1 overlaps    7 atoms,    83 shells and     7 DB shells.   NGrid=      2408
 Symmetry reduced    86 angular points to    86 for atom    2.
 Pruned (  99, 590) grid will be used in numerical quadrature.
 IPart=  0 Atom number   2 atomic number  6 has       23114 grid points.
 Pruned (  99, 590) grid will be used in numerical quadrature.
 IPart=  0 Atom   2 batch    2 overlaps    7 atoms,    83 shells and     7 DB shells.   NGrid=      2522
 IPart=  7 Atom number   2 atomic number  6 has       23114 grid points.
 Pruned (  99, 590) grid will be used in numerical quadrature.
 Symmetry reduced   194 angular points to   194 for atom    2.
 IPart=  2 Atom number   2 atomic number  6 has       23114 grid points.
 IPart=  7 Atom   2 batch    3 overlaps    7 atoms,    83 shells and     7 DB shells.   NGrid=      2114
 IPart=  2 Atom   2 batch    4 overlaps    7 atoms,    83 shells and     7 DB shells.   NGrid=      1180
 Symmetry reduced   302 angular points to   302 for atom    2.
 Pruned (  99, 590) grid will be used in numerical quadrature.
 Symmetry reduced   590 angular points to   590 for atom    2.
 IPart=  3 Atom number   2 atomic number  6 has       23114 grid points.
 IPart=  3 Atom   2 batch    5 overlaps    7 atoms,    83 shells and     7 DB shells.   NGrid=      1180
 Symmetry reduced   590 angular points to   590 for atom    2.
 Pruned (  99, 590) grid will be used in numerical quadrature.
 IPart=  5 Atom number   2 atomic number  6 has       23114 grid points.
 IPart=  5 Atom   2 batch    6 overlaps    7 atoms,    83 shells and     7 DB shells.   NGrid=      1180
 Symmetry reduced   590 angular points to   590 for atom    2.
 Pruned (  99, 590) grid will be used in numerical quadrature.
 IPart=  4 Atom number   2 atomic number  6 has       23114 grid points.
 IPart=  4 Atom   2 batch    7 overlaps    7 atoms,    83 shells and     7 DB shells.   NGrid=      1180
 Symmetry reduced   590 angular points to   590 for atom    2.
 Pruned (  99, 590) grid will be used in numerical quadrature.
 IPart=  1 Atom number   2 atomic number  6 has       23114 grid points.
 IPart=  1 Atom   2 batch    8 overlaps    7 atoms,    83 shells and     7 DB shells.   NGrid=      1180
 Symmetry reduced   590 angular points to   590 for atom    2.
 IPart=  2 Atom   2 batch    9 overlaps    7 atoms,    83 shells and     7 DB shells.   NGrid=      1180
 IPart=  3 Atom   2 batch   10 overlaps    7 atoms,    83 shells and     7 DB shells.   NGrid=      1180
 IPart=  5 Atom   2 batch   11 overlaps    7 atoms,    82 shells and     7 DB shells.   NGrid=      1180
 IPart=  4 Atom   2 batch   12 overlaps    7 atoms,    82 shells and     7 DB shells.   NGrid=       590
 IPart=  1 Atom   2 batch   13 overlaps    7 atoms,    82 shells and     7 DB shells.   NGrid=       604
 Symmetry reduced   302 angular points to   302 for atom    2.
 IPart=  4 Atom   2 batch   14 overlaps    7 atoms,    80 shells and     7 DB shells.   NGrid=       604
 Symmetry reduced   302 angular points to   302 for atom    2.
 IPart=  1 Atom   2 batch   15 overlaps    7 atoms,    76 shells and     7 DB shells.   NGrid=       604
 IPart=  7 Atom   2 batch   16 overlaps    7 atoms,    69 shells and     7 DB shells.   NGrid=       604
 IPart=  5 Atom   2 batch   17 overlaps    7 atoms,    59 shells and     7 DB shells.   NGrid=       604
 Symmetry reduced   302 angular points to   302 for atom    2.
 IPart=  6 Atom   2 batch   18 overlaps    7 atoms,    43 shells and     7 DB shells.   NGrid=       604
 Symmetry reduced   302 angular points to   302 for atom    2.
 IPart=  3 Atom   2 batch   19 overlaps    7 atoms,    31 shells and     7 DB shells.   NGrid=       604
 Symmetry reduced   302 angular points to   302 for atom    2.
 IPart=  4 Atom   2 batch   20 overlaps    7 atoms,    20 shells and     4 DB shells.   NGrid=       604
 IPart=  1 Atom   2 batch   21 overlaps    7 atoms,     9 shells and     0 DB shells.   NGrid=       604
 IPart=  2 Atom   2 batch   22 overlaps    7 atoms,     4 shells and     0 DB shells.   NGrid=       604
 Symmetry reduced   302 angular points to   302 for atom    2.
 Pruned (  99, 590) grid will be used in numerical quadrature.
 IPart=  4 Atom number   3 atomic number  8 has       23718 grid points.
 IPart=  4 Atom   3 batch    1 overlaps    7 atoms,    79 shells and     7 DB shells.   NGrid=      2408
 Symmetry reduced    86 angular points to    86 for atom    3.
 Pruned (  99, 590) grid will be used in numerical quadrature.
 IPart=  3 Atom number   3 atomic number  8 has       23718 grid points.
 IPart=  3 Atom   3 batch    2 overlaps    7 atoms,    81 shells and     7 DB shells.   NGrid=      2522
 Symmetry reduced   194 angular points to   194 for atom    3.
 Pruned (  99, 590) grid will be used in numerical quadrature.
 IPart=  1 Atom number   3 atomic number  8 has       23718 grid points.
 IPart=  1 Atom   3 batch    3 overlaps    7 atoms,    81 shells and     7 DB shells.   NGrid=      2114
 Symmetry reduced   302 angular points to   302 for atom    3.
 Pruned (  99, 590) grid will be used in numerical quadrature.
 IPart=  6 Atom number   3 atomic number  8 has       23718 grid points.
 IPart=  6 Atom   3 batch    4 overlaps    7 atoms,    81 shells and     7 DB shells.   NGrid=      1180
 Symmetry reduced   590 angular points to   590 for atom    3.
 Pruned (  99, 590) grid will be used in numerical quadrature.
 IPart=  7 Atom number   3 atomic number  8 has       23718 grid points.
 IPart=  7 Atom   3 batch    5 overlaps    7 atoms,    81 shells and     7 DB shells.   NGrid=      1180
 Symmetry reduced   590 angular points to   590 for atom    3.
 Pruned (  99, 590) grid will be used in numerical quadrature.
 IPart=  2 Atom number   3 atomic number  8 has       23718 grid points.
 IPart=  2 Atom   3 batch    6 overlaps    7 atoms,    82 shells and     7 DB shells.   NGrid=      1180
 Symmetry reduced   590 angular points to   590 for atom    3.
 Pruned (  99, 590) grid will be used in numerical quadrature.
 IPart=  0 Atom number   3 atomic number  8 has       23718 grid points.
 IPart=  0 Atom   3 batch    7 overlaps    7 atoms,    82 shells and     7 DB shells.   NGrid=      1180
 Symmetry reduced   590 angular points to   590 for atom    3.
 Pruned (  99, 590) grid will be used in numerical quadrature.
 IPart=  5 Atom number   3 atomic number  8 has       23718 grid points.
 IPart=  5 Atom   3 batch    8 overlaps    7 atoms,    82 shells and     7 DB shells.   NGrid=      1180
 Symmetry reduced   590 angular points to   590 for atom    3.
 IPart=  6 Atom   3 batch    9 overlaps    7 atoms,    83 shells and     7 DB shells.   NGrid=      1180
 IPart=  7 Atom   3 batch   10 overlaps    7 atoms,    83 shells and     7 DB shells.   NGrid=      1180
 IPart=  2 Atom   3 batch   11 overlaps    7 atoms,    83 shells and     7 DB shells.   NGrid=      1180
 IPart=  0 Atom   3 batch   12 overlaps    7 atoms,    82 shells and     7 DB shells.   NGrid=       590
 IPart=  5 Atom   3 batch   13 overlaps    7 atoms,    82 shells and     7 DB shells.   NGrid=       604
 Symmetry reduced   302 angular points to   302 for atom    3.
 IPart=  0 Atom   3 batch   14 overlaps    7 atoms,    82 shells and     7 DB shells.   NGrid=       604
 Symmetry reduced   302 angular points to   302 for atom    3.
 IPart=  4 Atom   3 batch   15 overlaps    7 atoms,    79 shells and     7 DB shells.   NGrid=       604
 Symmetry reduced   302 angular points to   302 for atom    3.
 IPart=  1 Atom   3 batch   16 overlaps    7 atoms,    78 shells and     7 DB shells.   NGrid=       604
 IPart=  5 Atom   3 batch   17 overlaps    7 atoms,    76 shells and     7 DB shells.   NGrid=       604
 IPart=  3 Atom   3 batch   18 overlaps    7 atoms,    68 shells and     7 DB shells.   NGrid=       604
 Symmetry reduced   302 angular points to   302 for atom    3.
 IPart=  6 Atom   3 batch   19 overlaps    7 atoms,    58 shells and     7 DB shells.   NGrid=       604
 Symmetry reduced   302 angular points to   302 for atom    3.
 IPart=  5 Atom   3 batch   20 overlaps    7 atoms,    40 shells and     6 DB shells.   NGrid=       604
 IPart=  2 Atom   3 batch   21 overlaps    7 atoms,    25 shells and     5 DB shells.   NGrid=       604
 Symmetry reduced   302 angular points to   302 for atom    3.
 IPart=  7 Atom   3 batch   22 overlaps    7 atoms,    11 shells and     0 DB shells.   NGrid=       604
 Symmetry reduced   302 angular points to   302 for atom    3.
 IPart=  4 Atom   3 batch   23 overlaps    7 atoms,     4 shells and     0 DB shells.   NGrid=       604
 Pruned (  99, 590) grid will be used in numerical quadrature.
 IPart=  1 Atom number   4 atomic number  8 has       23718 grid points.
 IPart=  1 Atom   4 batch    1 overlaps    7 atoms,    79 shells and     7 DB shells.   NGrid=      2408
 Symmetry reduced    86 angular points to    86 for atom    4.
 Pruned (  99, 590) grid will be used in numerical quadrature.
 IPart=  3 Atom number   4 atomic number  8 has       23718 grid points.
 IPart=  3 Atom   4 batch    2 overlaps    7 atoms,    80 shells and     7 DB shells.   NGrid=      2522
 Symmetry reduced   194 angular points to   194 for atom    4.
 Pruned (  99, 590) grid will be used in numerical quadrature.
 Pruned (  99, 590) grid will be used in numerical quadrature.
 IPart=  5 Atom number   4 atomic number  8 has       23718 grid points.
 IPart=  2 Atom number   4 atomic number  8 has       23718 grid points.
 IPart=  5 Atom   4 batch    3 overlaps    7 atoms,    81 shells and     7 DB shells.   NGrid=      2114
 IPart=  2 Atom   4 batch    4 overlaps    7 atoms,    81 shells and     7 DB shells.   NGrid=      1180
 Symmetry reduced   302 angular points to   302 for atom    4.
 Pruned (  99, 590) grid will be used in numerical quadrature.
 Symmetry reduced   590 angular points to   590 for atom    4.
 IPart=  4 Atom number   4 atomic number  8 has       23718 grid points.
 IPart=  4 Atom   4 batch    5 overlaps    7 atoms,    82 shells and     7 DB shells.   NGrid=      1180
 Symmetry reduced   590 angular points to   590 for atom    4.
 Pruned (  99, 590) grid will be used in numerical quadrature.
 IPart=  7 Atom number   4 atomic number  8 has       23718 grid points.
 IPart=  7 Atom   4 batch    6 overlaps    7 atoms,    82 shells and     7 DB shells.   NGrid=      1180
 Symmetry reduced   590 angular points to   590 for atom    4.
 Pruned (  99, 590) grid will be used in numerical quadrature.
 IPart=  0 Atom number   4 atomic number  8 has       23718 grid points.
 IPart=  0 Atom   4 batch    7 overlaps    7 atoms,    82 shells and     7 DB shells.   NGrid=      1180
 Symmetry reduced   590 angular points to   590 for atom    4.
 Pruned (  99, 590) grid will be used in numerical quadrature.
 IPart=  6 Atom number   4 atomic number  8 has       23718 grid points.
 IPart=  6 Atom   4 batch    8 overlaps    7 atoms,    82 shells and     7 DB shells.   NGrid=      1180
 Symmetry reduced   590 angular points to   590 for atom    4.
 IPart=  2 Atom   4 batch    9 overlaps    7 atoms,    83 shells and     7 DB shells.   NGrid=      1180
 IPart=  4 Atom   4 batch   10 overlaps    7 atoms,    83 shells and     7 DB shells.   NGrid=      1180
 IPart=  7 Atom   4 batch   11 overlaps    7 atoms,    83 shells and     7 DB shells.   NGrid=      1180
 IPart=  0 Atom   4 batch   12 overlaps    7 atoms,    82 shells and     7 DB shells.   NGrid=       590
 IPart=  6 Atom   4 batch   13 overlaps    7 atoms,    82 shells and     7 DB shells.   NGrid=       604
 Symmetry reduced   302 angular points to   302 for atom    4.
 IPart=  0 Atom   4 batch   14 overlaps    7 atoms,    82 shells and     7 DB shells.   NGrid=       604
 Symmetry reduced   302 angular points to   302 for atom    4.
 IPart=  1 Atom   4 batch   15 overlaps    7 atoms,    79 shells and     7 DB shells.   NGrid=       604
 Symmetry reduced   302 angular points to   302 for atom    4.
 IPart=  5 Atom   4 batch   16 overlaps    7 atoms,    78 shells and     7 DB shells.   NGrid=       604
 IPart=  6 Atom   4 batch   17 overlaps    7 atoms,    76 shells and     7 DB shells.   NGrid=       604
 IPart=  3 Atom   4 batch   18 overlaps    7 atoms,    68 shells and     7 DB shells.   NGrid=       604
 Symmetry reduced   302 angular points to   302 for atom    4.
 IPart=  2 Atom   4 batch   19 overlaps    7 atoms,    56 shells and     7 DB shells.   NGrid=       604
 Symmetry reduced   302 angular points to   302 for atom    4.
 IPart=  6 Atom   4 batch   20 overlaps    7 atoms,    40 shells and     6 DB shells.   NGrid=       604
 IPart=  4 Atom   4 batch   21 overlaps    7 atoms,    24 shells and     5 DB shells.   NGrid=       604
 Symmetry reduced   302 angular points to   302 for atom    4.
 IPart=  7 Atom   4 batch   22 overlaps    7 atoms,    11 shells and     0 DB shells.   NGrid=       604
 Symmetry reduced   302 angular points to   302 for atom    4.
 IPart=  5 Atom   4 batch   23 overlaps    7 atoms,     4 shells and     0 DB shells.   NGrid=       604
 Pruned (  99, 590) grid will be used in numerical quadrature.
 IPart=  1 Atom number   5 atomic number  1 has       23164 grid points.
 IPart=  1 Atom   5 batch    1 overlaps    7 atoms,    74 shells and     7 DB shells.   NGrid=      2838
 Symmetry reduced    86 angular points to    86 for atom    5.
 Pruned (  99, 590) grid will be used in numerical quadrature.
 IPart=  6 Atom number   5 atomic number  1 has       23164 grid points.
 IPart=  6 Atom   5 batch    2 overlaps    7 atoms,    76 shells and     7 DB shells.   NGrid=      1552
 Symmetry reduced   194 angular points to   194 for atom    5.
 Pruned (  99, 590) grid will be used in numerical quadrature.
 IPart=  4 Atom number   5 atomic number  1 has       23164 grid points.
 IPart=  4 Atom   5 batch    3 overlaps    7 atoms,    78 shells and     7 DB shells.   NGrid=      2416
 Symmetry reduced   302 angular points to   302 for atom    5.
 Pruned (  99, 590) grid will be used in numerical quadrature.
 IPart=  3 Atom number   5 atomic number  1 has       23164 grid points.
 IPart=  3 Atom   5 batch    4 overlaps    7 atoms,    78 shells and     7 DB shells.   NGrid=      1180
 Symmetry reduced   590 angular points to   590 for atom    5.
 Pruned (  99, 590) grid will be used in numerical quadrature.
 IPart=  7 Atom number   5 atomic number  1 has       23164 grid points.
 IPart=  7 Atom   5 batch    5 overlaps    7 atoms,    78 shells and     7 DB shells.   NGrid=      1180
 Pruned (  99, 590) grid will be used in numerical quadrature.
 Symmetry reduced   590 angular points to   590 for atom    5.
 IPart=  5 Atom number   5 atomic number  1 has       23164 grid points.
 IPart=  5 Atom   5 batch    6 overlaps    7 atoms,    79 shells and     7 DB shells.   NGrid=      1180
 Symmetry reduced   590 angular points to   590 for atom    5.
 Pruned (  99, 590) grid will be used in numerical quadrature.
 Pruned (  99, 590) grid will be used in numerical quadrature.
 IPart=  2 Atom number   5 atomic number  1 has       23164 grid points.
 IPart=  0 Atom number   5 atomic number  1 has       23164 grid points.
 IPart=  2 Atom   5 batch    7 overlaps    7 atoms,    79 shells and     7 DB shells.   NGrid=      1180
 IPart=  0 Atom   5 batch    8 overlaps    7 atoms,    81 shells and     7 DB shells.   NGrid=      1180
 Symmetry reduced   590 angular points to   590 for atom    5.
 Symmetry reduced   590 angular points to   590 for atom    5.
 IPart=  3 Atom   5 batch    9 overlaps    7 atoms,    82 shells and     7 DB shells.   NGrid=      1180
 IPart=  7 Atom   5 batch   10 overlaps    7 atoms,    82 shells and     7 DB shells.   NGrid=      1180
 IPart=  5 Atom   5 batch   11 overlaps    7 atoms,    82 shells and     7 DB shells.   NGrid=      1180
 IPart=  2 Atom   5 batch   12 overlaps    7 atoms,    83 shells and     7 DB shells.   NGrid=      1180
 IPart=  0 Atom   5 batch   13 overlaps    7 atoms,    83 shells and     7 DB shells.   NGrid=       604
 Symmetry reduced   302 angular points to   302 for atom    5.
 IPart=  6 Atom   5 batch   14 overlaps    7 atoms,    83 shells and     7 DB shells.   NGrid=       604
 Symmetry reduced   302 angular points to   302 for atom    5.
 IPart=  6 Atom   5 batch   15 overlaps    7 atoms,    79 shells and     7 DB shells.   NGrid=       604
 IPart=  0 Atom   5 batch   16 overlaps    7 atoms,    76 shells and     7 DB shells.   NGrid=       604
 IPart=  4 Atom   5 batch   17 overlaps    7 atoms,    63 shells and     7 DB shells.   NGrid=       604
 IPart=  5 Atom   5 batch   18 overlaps    7 atoms,    48 shells and     7 DB shells.   NGrid=       604
 IPart=  3 Atom   5 batch   19 overlaps    7 atoms,    32 shells and     7 DB shells.   NGrid=       604
 Symmetry reduced   302 angular points to   302 for atom    5.
 Symmetry reduced   302 angular points to   302 for atom    5.
 IPart=  1 Atom   5 batch   20 overlaps    7 atoms,    18 shells and     1 DB shells.   NGrid=       604
 Symmetry reduced   302 angular points to   302 for atom    5.
 IPart=  6 Atom   5 batch   21 overlaps    7 atoms,     9 shells and     0 DB shells.   NGrid=       604
 IPart=  2 Atom   5 batch   22 overlaps    7 atoms,     2 shells and     0 DB shells.   NGrid=       302
 Pruned (  99, 590) grid will be used in numerical quadrature.
 Symmetry reduced   302 angular points to   302 for atom    5.
 IPart=  7 Atom number   6 atomic number  1 has       23164 grid points.
 IPart=  7 Atom   6 batch    1 overlaps    7 atoms,    74 shells and     7 DB shells.   NGrid=      2838
 Symmetry reduced    86 angular points to    86 for atom    6.
 Pruned (  99, 590) grid will be used in numerical quadrature.
 IPart=  0 Atom number   6 atomic number  1 has       23164 grid points.
 IPart=  0 Atom   6 batch    2 overlaps    7 atoms,    75 shells and     7 DB shells.   NGrid=      1552
 Symmetry reduced   194 angular points to   194 for atom    6.
 Pruned (  99, 590) grid will be used in numerical quadrature.
 IPart=  1 Atom number   6 atomic number  1 has       23164 grid points.
 IPart=  1 Atom   6 batch    3 overlaps    7 atoms,    78 shells and     7 DB shells.   NGrid=      2416
 Symmetry reduced   302 angular points to   302 for atom    6.
 Pruned (  99, 590) grid will be used in numerical quadrature.
 IPart=  3 Atom number   6 atomic number  1 has       23164 grid points.
 Pruned (  99, 590) grid will be used in numerical quadrature.
 IPart=  3 Atom   6 batch    4 overlaps    7 atoms,    78 shells and     7 DB shells.   NGrid=      1180
 IPart=  2 Atom number   6 atomic number  1 has       23164 grid points.
 Symmetry reduced   590 angular points to   590 for atom    6.
 IPart=  2 Atom   6 batch    5 overlaps    7 atoms,    79 shells and     7 DB shells.   NGrid=      1180
 Symmetry reduced   590 angular points to   590 for atom    6.
 Pruned (  99, 590) grid will be used in numerical quadrature.
 IPart=  6 Atom number   6 atomic number  1 has       23164 grid points.
 IPart=  6 Atom   6 batch    6 overlaps    7 atoms,    80 shells and     7 DB shells.   NGrid=      1180
 Symmetry reduced   590 angular points to   590 for atom    6.
 Pruned (  99, 590) grid will be used in numerical quadrature.
 IPart=  4 Atom number   6 atomic number  1 has       23164 grid points.
 IPart=  4 Atom   6 batch    7 overlaps    7 atoms,    81 shells and     7 DB shells.   NGrid=      1180
 Symmetry reduced   590 angular points to   590 for atom    6.
 Pruned (  99, 590) grid will be used in numerical quadrature.
 IPart=  5 Atom number   6 atomic number  1 has       23164 grid points.
 IPart=  5 Atom   6 batch    8 overlaps    7 atoms,    81 shells and     7 DB shells.   NGrid=      1180
 Symmetry reduced   590 angular points to   590 for atom    6.
 IPart=  2 Atom   6 batch    9 overlaps    7 atoms,    81 shells and     7 DB shells.   NGrid=      1180
 IPart=  3 Atom   6 batch   10 overlaps    7 atoms,    82 shells and     7 DB shells.   NGrid=      1180
 IPart=  6 Atom   6 batch   11 overlaps    7 atoms,    83 shells and     7 DB shells.   NGrid=      1180
 IPart=  4 Atom   6 batch   12 overlaps    7 atoms,    83 shells and     7 DB shells.   NGrid=      1180
 IPart=  5 Atom   6 batch   13 overlaps    7 atoms,    83 shells and     7 DB shells.   NGrid=       604
 Symmetry reduced   302 angular points to   302 for atom    6.
 IPart=  0 Atom   6 batch   14 overlaps    7 atoms,    83 shells and     7 DB shells.   NGrid=       604
 Symmetry reduced   302 angular points to   302 for atom    6.
 IPart=  0 Atom   6 batch   15 overlaps    7 atoms,    79 shells and     7 DB shells.   NGrid=       604
 IPart=  5 Atom   6 batch   16 overlaps    7 atoms,    76 shells and     7 DB shells.   NGrid=       604
 IPart=  1 Atom   6 batch   17 overlaps    7 atoms,    63 shells and     7 DB shells.   NGrid=       604
 IPart=  2 Atom   6 batch   18 overlaps    7 atoms,    50 shells and     7 DB shells.   NGrid=       604
 IPart=  6 Atom   6 batch   19 overlaps    7 atoms,    32 shells and     7 DB shells.   NGrid=       604
 Symmetry reduced   302 angular points to   302 for atom    6.
 Symmetry reduced   302 angular points to   302 for atom    6.
 IPart=  7 Atom   6 batch   20 overlaps    7 atoms,    18 shells and     1 DB shells.   NGrid=       604
 Symmetry reduced   302 angular points to   302 for atom    6.
 IPart=  5 Atom   6 batch   21 overlaps    7 atoms,     9 shells and     0 DB shells.   NGrid=       604
 IPart=  4 Atom   6 batch   22 overlaps    7 atoms,     2 shells and     0 DB shells.   NGrid=       302
 Symmetry reduced   302 angular points to   302 for atom    6.
 Pruned (  99, 590) grid will be used in numerical quadrature.
 Pruned (  99, 590) grid will be used in numerical quadrature.
 IPart=  3 Atom number   7 atomic number  1 has       23164 grid points.
 IPart=  0 Atom number   7 atomic number  1 has       23164 grid points.
 IPart=  3 Atom   7 batch    1 overlaps    7 atoms,    74 shells and     7 DB shells.   NGrid=      2838
 IPart=  0 Atom   7 batch    2 overlaps    7 atoms,    75 shells and     7 DB shells.   NGrid=      1552
 Symmetry reduced    86 angular points to    86 for atom    7.
 Symmetry reduced   194 angular points to   194 for atom    7.
 Pruned (  99, 590) grid will be used in numerical quadrature.
 IPart=  4 Atom number   7 atomic number  1 has       23164 grid points.
 IPart=  4 Atom   7 batch    3 overlaps    7 atoms,    78 shells and     7 DB shells.   NGrid=      2416
 Symmetry reduced   302 angular points to   302 for atom    7.
 Pruned (  99, 590) grid will be used in numerical quadrature.
 IPart=  7 Atom number   7 atomic number  1 has       23164 grid points.
 IPart=  7 Atom   7 batch    4 overlaps    7 atoms,    78 shells and     7 DB shells.   NGrid=      1180
 Symmetry reduced   590 angular points to   590 for atom    7.
 Pruned (  99, 590) grid will be used in numerical quadrature.
 IPart=  6 Atom number   7 atomic number  1 has       23164 grid points.
 IPart=  6 Atom   7 batch    5 overlaps    7 atoms,    79 shells and     7 DB shells.   NGrid=      1180
 Symmetry reduced   590 angular points to   590 for atom    7.
 Pruned (  99, 590) grid will be used in numerical quadrature.
 IPart=  5 Atom number   7 atomic number  1 has       23164 grid points.
 IPart=  5 Atom   7 batch    6 overlaps    7 atoms,    80 shells and     7 DB shells.   NGrid=      1180
 Symmetry reduced   590 angular points to   590 for atom    7.
 Pruned (  99, 590) grid will be used in numerical quadrature.
 IPart=  1 Atom number   7 atomic number  1 has       23164 grid points.
 IPart=  1 Atom   7 batch    7 overlaps    7 atoms,    81 shells and     7 DB shells.   NGrid=      1180
 Symmetry reduced   590 angular points to   590 for atom    7.
 Pruned (  99, 590) grid will be used in numerical quadrature.
 IPart=  2 Atom number   7 atomic number  1 has       23164 grid points.
 IPart=  2 Atom   7 batch    8 overlaps    7 atoms,    81 shells and     7 DB shells.   NGrid=      1180
 Symmetry reduced   590 angular points to   590 for atom    7.
 IPart=  6 Atom   7 batch    9 overlaps    7 atoms,    81 shells and     7 DB shells.   NGrid=      1180
 IPart=  7 Atom   7 batch   10 overlaps    7 atoms,    82 shells and     7 DB shells.   NGrid=      1180
 IPart=  5 Atom   7 batch   11 overlaps    7 atoms,    83 shells and     7 DB shells.   NGrid=      1180
 IPart=  1 Atom   7 batch   12 overlaps    7 atoms,    83 shells and     7 DB shells.   NGrid=      1180
 IPart=  2 Atom   7 batch   13 overlaps    7 atoms,    83 shells and     7 DB shells.   NGrid=       604
 Symmetry reduced   302 angular points to   302 for atom    7.
 IPart=  0 Atom   7 batch   14 overlaps    7 atoms,    83 shells and     7 DB shells.   NGrid=       604
 Symmetry reduced   302 angular points to   302 for atom    7.
 IPart=  0 Atom   7 batch   15 overlaps    7 atoms,    79 shells and     7 DB shells.   NGrid=       604
 IPart=  2 Atom   7 batch   16 overlaps    7 atoms,    76 shells and     7 DB shells.   NGrid=       604
 IPart=  4 Atom   7 batch   17 overlaps    7 atoms,    63 shells and     7 DB shells.   NGrid=       604
 IPart=  5 Atom   7 batch   18 overlaps    7 atoms,    50 shells and     7 DB shells.   NGrid=       604
 IPart=  2 Atom   7 batch   19 overlaps    7 atoms,    32 shells and     7 DB shells.   NGrid=       604
 Symmetry reduced   302 angular points to   302 for atom    7.
 IPart=  3 Atom   7 batch   20 overlaps    7 atoms,    18 shells and     1 DB shells.   NGrid=       604
 Symmetry reduced   302 angular points to   302 for atom    7.
 IPart=  6 Atom   7 batch   21 overlaps    7 atoms,     9 shells and     0 DB shells.   NGrid=       604
 Symmetry reduced   302 angular points to   302 for atom    7.
 IPart=  7 Atom   7 batch   22 overlaps    7 atoms,     2 shells and     0 DB shells.   NGrid=       302
 Symmetry reduced   302 angular points to   302 for atom    7.
 There are a total of      163156 grid points.
 ElSum from          density=       32.0000023416
 ElSum from atomic densities=       31.0000024702

 Hirshfeld populations at iteration   1 (CX, CA, CB, DipXYZ):
               1          2          3          4          5          6
     1  C    0.000000   3.053120   3.053120   0.027095  -0.001934  -0.000054
     2  C    0.000000   2.912935   2.912935  -0.121597  -0.007288  -0.000566
     3  O    0.000014   4.267011   4.267011  -0.144091   0.235364  -0.000162
     4  O    0.000014   4.270406   4.270406  -0.123583  -0.252258  -0.000165
     5  H    0.000003   0.500648   0.500648  -0.042123  -0.117971  -0.002071
     6  H    0.000002   0.497878   0.497878  -0.038852   0.058001   0.110834
     7  H    0.000002   0.498003   0.498003  -0.039414   0.061429  -0.108493
       Tot   0.000035  16.000001  16.000001  -0.482567  -0.024659  -0.000676

 Dip from Atomic Chgs             -1.222817  -0.049374   0.000058
         Total Dipole             -1.705384  -0.074033  -0.000619

 Hirshfeld charges, spin densities, dipoles, and CM5 charges using IRadAn=      5:
              Q-H        S-H        Dx         Dy         Dz        Q-CM5   
     1  C   -0.106240   0.000000   0.027095  -0.001934  -0.000054  -0.244544
     2  C    0.174130   0.000000  -0.121597  -0.007288  -0.000566   0.225744
     3  O   -0.534022   0.000000  -0.144091   0.235364  -0.000162  -0.571473
     4  O   -0.540812   0.000000  -0.123583  -0.252258  -0.000165  -0.578250
     5  H   -0.001296   0.000000  -0.042123  -0.117971  -0.002071   0.053428
     6  H    0.004244   0.000000  -0.038852   0.058001   0.110834   0.057638
     7  H    0.003993   0.000000  -0.039414   0.061429  -0.108493   0.057455
       Tot  -1.000002   0.000000  -0.482567  -0.024659  -0.000676  -1.000002
 Hirshfeld charges with hydrogens summed into heavy atoms:
              Q-H       Q-CM5   
     1  C   -0.099299  -0.076024
     2  C    0.174130   0.225744
     3  O   -0.534022  -0.571473
     4  O   -0.540812  -0.578250
 
 EQQ=  0.00000000000     EQD=  0.00000000000     EDD= 0.935667897825E-03
 EQQ+QD+DD= 0.935667897825E-03
 
  Exact polarizability:      42.357      -0.455      43.627      -0.010       0.000      31.188
 Approx polarizability:      33.124      -0.527      37.806      -0.010       0.000      29.304
 Entering OneElI...
 OneElI was handed  1572705918 working-precision words.
 Calculate electrostatic properties
    NBasis =   253  MinDer = 0  MaxDer = 0
    NGrid  =     7  NMatD  =   1
 Requested accuracy = 0.1000D-12
 ShPair: Thresh= 1.00D-13 NBox=     0 BxSize= 0.00D+00 RnKept= 6.26D+00
         NSMCal=                 3486 NSMKep=                3449
 PrmmSu-InSpLW:  IPartL=    0 NPrtUS=    8 NPrtUL=    1 DoSpLW=F IThBeg=    0 IThEnd=    7 NThAct=    8.
 PrSmSu:  IncTry=   512 NBBP=          24143 NTPThr=   100 NPartT=    8 Incr=          30 LDynOK=F GPUOK=F.
 PrsmSu:  NPrtUS=   8 ThrOK=T IAlg=2 LenDen=           0 ISkipM=0 DoSpLW=F IThBeg=    0 IThEnd=    7.
 Prism:   IPart=     0 DynPar=F LinDyn=F Incr=          30.
 PRISM was handed   196497193 working-precision words and  3449 shell-pairs
 PRISM was handed   196497193 working-precision words and  3449 shell-pairs
 PRISM was handed   196497193 working-precision words and  3449 shell-pairs
 PRISM was handed   196497193 working-precision words and  3449 shell-pairs
 PRISM was handed   196497193 working-precision words and  3449 shell-pairs
 PRISM was handed   196497193 working-precision words and  3449 shell-pairs
 PRISM was handed   196497193 working-precision words and  3449 shell-pairs
 PRISM was handed   196497193 working-precision words and  3449 shell-pairs
 IPart=  4 NShTot=        2940 NBatch=         420 AvBLen=         7.0
 IPart=  5 NShTot=        2912 NBatch=         416 AvBLen=         7.0
 PrsmSu-ThDecC:  IPartSL=    4    0 NPrtUSL=    8    1 IThBeg=    0 IThEnd=    7 CPU=   -1 GPU=   -1 NThAct=    8.
 PrsmSu-ThDecC:  IPartSL=    5    0 NPrtUSL=    8    1 IThBeg=    0 IThEnd=    7 CPU=   -1 GPU=   -1 NThAct=    7.
[...]
      9 -0.276197D-02 -0.255068D-01 -0.155877D-01  0.107426D+00
     10 -0.525303D-02 -0.380804D-01 -0.391343D-01  0.906570D-02  0.579123D-01
     11 -0.451804D-02 -0.401707D-01  0.872157D-02 -0.401711D-01  0.621897D-02
     12 -0.844920D-03  0.906589D-02 -0.391337D-01 -0.380801D-01  0.593053D-02
     13 -0.537282D-01 -0.187636D-01 -0.438226D-03  0.238326D-01  0.583939D-02
     14  0.262378D-01  0.238368D-01 -0.447152D-03 -0.187609D-01 -0.876661D-02
     15  0.274838D-01 -0.491675D-02  0.527722D-03 -0.491524D-02  0.299276D-02
     16 -0.173675D-03  0.276874D-02 -0.129304D-01  0.104332D-01 -0.114740D-01
     17 -0.310101D-03 -0.363983D-02  0.188572D-02  0.402041D-02 -0.142351D-01
     18  0.107923D-02  0.942100D-02 -0.740853D-02 -0.300959D-02  0.128408D-01
     19  0.942803D-03  0.301242D-02  0.740763D-02 -0.942236D-02  0.100796D-01
     20 -0.705513D-03 -0.402264D-02 -0.188635D-02  0.364232D-02  0.124691D-02
     21 -0.841938D-03 -0.104312D-01  0.129298D-01 -0.277045D-02 -0.151421D-02
               11            12            13            14            15 
     11  0.608612D-01
     12  0.621887D-02  0.579113D-01
     13 -0.191494D-02 -0.876853D-02  0.194988D+00
     14 -0.191753D-02  0.584133D-02 -0.777533D-01  0.194986D+00
     15  0.373526D-02  0.299271D-02 -0.117188D+00 -0.117187D+00  0.234323D+00
     16  0.850708D-02  0.151356D-02  0.450378D-03  0.884325D-03 -0.451763D-03
     17  0.124808D-01 -0.124628D-02  0.271617D-03  0.705566D-03 -0.176181D-02
     18 -0.198687D-02 -0.100809D-01 -0.365153D-02  0.383056D-02  0.654737D-03
     19  0.198690D-02 -0.128407D-01 -0.383029D-02  0.365180D-02 -0.655307D-03
     20 -0.124804D-01  0.142347D-01 -0.705104D-03 -0.272408D-03  0.176212D-02
     21 -0.850663D-02  0.114749D-01 -0.883865D-03 -0.451167D-03  0.452079D-03
               16            17            18            19            20 
     16  0.322391D-01
     17 -0.434995D-02  0.281971D-01
     18  0.118796D-01 -0.226875D-01  0.284868D-01
     19 -0.247094D-01  0.985950D-02 -0.608038D-02  0.284886D-01
     20  0.118484D-01 -0.206981D-01  0.985781D-02 -0.226886D-01  0.281957D-01
     21 -0.247407D-01  0.118490D-01 -0.247093D-01  0.118803D-01 -0.435077D-02
               21 
     21  0.322389D-01
 Leave Link  716 at Sun Sep 28 21:26:18 2025, MaxMem=  1572864000 cpu:               0.2 elap:               0.0
 (Enter /software/sse/easybuild/prefix/software/Gaussian/16.C.01-avx2-nsc1/g16/l103.exe)

 GradGradGradGradGradGradGradGradGradGradGradGradGradGradGradGradGradGrad
 Berny optimization.
 Red2BG is reusing G-inverse.
 Internal  Forces:  Max     0.000000137 RMS     0.000000049
 Search for a local minimum.
 Step number   1 out of a maximum of    2
 All quantities printed in internal units (Hartrees-Bohrs-Radians)
 Second derivative matrix not updated -- analytic derivatives used.
 ITU=  0
     Eigenvalues ---    0.00006   0.06109   0.06667   0.09476   0.13239
     Eigenvalues ---    0.13905   0.15218   0.22742   0.26327   0.35137
     Eigenvalues ---    0.36336   0.36718   0.38384   0.63632   0.88012
 Angle between quadratic step and forces=  87.23 degrees.
 Linear search not attempted -- first point.
 Iteration  1 RMS(Cart)=  0.00003103 RMS(Int)=  0.00000000
 Iteration  2 RMS(Cart)=  0.00000000 RMS(Int)=  0.00000000
 ITry= 1 IFail=0 DXMaxC= 7.20D-05 DCOld= 1.00D+10 DXMaxT= 3.00D-01 DXLimC= 3.00D+00 Rises=F
 Variable       Old X    -DE/DX   Delta X   Delta X   Delta X     New X
                                 (Linear)    (Quad)   (Total)
    R1        2.92150  -0.00000   0.00000  -0.00000  -0.00000   2.92150
    R2        2.04836  -0.00000   0.00000   0.00000   0.00000   2.04836
    R3        2.05534  -0.00000   0.00000   0.00000   0.00000   2.05534
    R4        2.04836   0.00000   0.00000  -0.00000  -0.00000   2.04836
    R5        2.32885  -0.00000   0.00000  -0.00000  -0.00000   2.32885
    R6        2.32885   0.00000   0.00000   0.00000   0.00000   2.32885
    A1        1.93871  -0.00000   0.00000  -0.00000  -0.00000   1.93871
    A2        1.89045  -0.00000   0.00000  -0.00000  -0.00000   1.89045
    A3        1.93869   0.00000   0.00000   0.00000   0.00000   1.93870
    A4        1.88342   0.00000   0.00000  -0.00000  -0.00000   1.88342
    A5        1.92706   0.00000   0.00000   0.00000   0.00000   1.92706
    A6        1.88341  -0.00000   0.00000   0.00000   0.00000   1.88341
    A7        2.01839   0.00000   0.00000  -0.00000  -0.00000   2.01839
    A8        2.01838  -0.00000   0.00000   0.00000   0.00000   2.01838
    A9        2.24614  -0.00000   0.00000  -0.00000  -0.00000   2.24614
    D1       -0.50613  -0.00000   0.00000  -0.00006  -0.00006  -0.50619
    D2        2.65863  -0.00000   0.00000  -0.00006  -0.00006   2.65857
    D3        1.55940  -0.00000   0.00000  -0.00007  -0.00007   1.55933
    D4       -1.55903  -0.00000   0.00000  -0.00007  -0.00007  -1.55910
    D5       -2.65829  -0.00000   0.00000  -0.00006  -0.00006  -2.65835
    D6        0.50647  -0.00000   0.00000  -0.00006  -0.00006   0.50640
         Item               Value     Threshold  Converged?
 Maximum Force            0.000000     0.000002     YES
 RMS     Force            0.000000     0.000001     YES
 Maximum Displacement     0.000072     0.000006     NO 
 RMS     Displacement     0.000031     0.000004     NO 
 Predicted change in Energy=-8.508449D-13
                           ----------------------------
                           ! Non-Optimized Parameters !
                           ! (Angstroms and Degrees)  !
 --------------------------                            --------------------------
 ! Name  Definition              Value          Derivative Info.                !
 --------------------------------------------------------------------------------
 ! R1    R(1,2)                  1.546          -DE/DX =    0.0                 !
 ! R2    R(1,5)                  1.0839         -DE/DX =    0.0                 !
 ! R3    R(1,6)                  1.0876         -DE/DX =    0.0                 !
 ! R4    R(1,7)                  1.0839         -DE/DX =    0.0                 !
 ! R5    R(2,3)                  1.2324         -DE/DX =    0.0                 !
 ! R6    R(2,4)                  1.2324         -DE/DX =    0.0                 !
 ! A1    A(2,1,5)              111.0797         -DE/DX =    0.0                 !
 ! A2    A(2,1,6)              108.3147         -DE/DX =    0.0                 !
 ! A3    A(2,1,7)              111.0791         -DE/DX =    0.0                 !
 ! A4    A(5,1,6)              107.912          -DE/DX =    0.0                 !
 ! A5    A(5,1,7)              110.4122         -DE/DX =    0.0                 !
 ! A6    A(6,1,7)              107.9114         -DE/DX =    0.0                 !
 ! A7    A(1,2,3)              115.6451         -DE/DX =    0.0                 !
 ! A8    A(1,2,4)              115.6447         -DE/DX =    0.0                 !
 ! A9    A(3,2,4)              128.6942         -DE/DX =    0.0                 !
 ! D1    D(5,1,2,3)            -29.0027         -DE/DX =    0.0                 !
 ! D2    D(5,1,2,4)            152.3246         -DE/DX =    0.0                 !
 ! D3    D(6,1,2,3)             89.343          -DE/DX =    0.0                 !
 ! D4    D(6,1,2,4)            -89.3298         -DE/DX =    0.0                 !
 ! D5    D(7,1,2,3)           -152.3125         -DE/DX =    0.0                 !
 ! D6    D(7,1,2,4)             29.0148         -DE/DX =    0.0                 !
 --------------------------------------------------------------------------------
 GradGradGradGradGradGradGradGradGradGradGradGradGradGradGradGradGradGrad

 Leave Link  103 at Sun Sep 28 21:26:18 2025, MaxMem=  1572864000 cpu:               0.1 elap:               0.0
 (Enter /software/sse/easybuild/prefix/software/Gaussian/16.C.01-avx2-nsc1/g16/l9999.exe)

 ----------------------------------------------------------------------

 Electric dipole moment (input orientation):
 (Debye = 10**-18 statcoulomb cm , SI units = C m)
                  (au)            (Debye)         (10**-30 SI)
   Tot        0.158507D+01      0.402885D+01      0.134388D+02
   x          0.668991D-03      0.170040D-02      0.567194D-02
   y          0.191660D-01      0.487150D-01      0.162496D+00
   z         -0.158495D+01     -0.402855D+01     -0.134378D+02

 Dipole polarizability, Alpha (input orientation).
 (esu units = cm**3 , SI units = C**2 m**2 J**-1)
 Alpha(0;0):
               (au)            (10**-24 esu)      (10**-40 SI)
   iso        0.378805D+02      0.561330D+01      0.624564D+01
   aniso      0.112249D+02      0.166336D+01      0.185074D+01
   xx         0.407565D+02      0.603950D+01      0.671985D+01
   yx        -0.300447D+01     -0.445217D+00     -0.495371D+00
   yy         0.312699D+02      0.463372D+01      0.515570D+01
   zx         0.327656D-01      0.485537D-02      0.540233D-02
   zy         0.112401D+00      0.166561D-01      0.185324D-01
   zz         0.416149D+02      0.616670D+01      0.686138D+01

 First dipole hyperpolarizability, Beta (input orientation).
 ||, _|_  parallel and perpendicular components, (z) with respect to z axis,
 vector components x,y,z.  Values do not include the 1/n! factor of 1/2.
 (esu units = statvolt**-1 cm**4 , SI units = C**3 m**3 J**-2)
 Beta(0;0,0):
               (au)            (10**-30 esu)      (10**-50 SI)
   || (z)    -0.123914D+03     -0.107052D+01     -0.397312D+00
   _|_(z)    -0.413045D+02     -0.356839D+00     -0.132437D+00
   x         -0.122460D+02     -0.105796D+00     -0.392652D-01
   y         -0.355393D+02     -0.307032D+00     -0.113952D+00
   z         -0.619568D+03     -0.535258D+01     -0.198656D+01
   ||         0.124141D+03      0.107249D+01      0.398042D+00
   xxx        0.452836D+01      0.391215D-01      0.145196D-01
   xxy        0.427894D+01      0.369667D-01      0.137198D-01
   yxy       -0.719705D+01     -0.621769D-01     -0.230763D-01
   yyy       -0.108202D+02     -0.934783D-01     -0.346935D-01
   xxz       -0.707310D+02     -0.611061D+00     -0.226789D+00
   yxz        0.134840D+02      0.116491D+00      0.432345D-01
   yyz       -0.280218D+02     -0.242087D+00     -0.898481D-01
   zxz       -0.141333D+01     -0.122100D-01     -0.453163D-02
   zyz       -0.530514D+01     -0.458323D-01     -0.170102D-01
   zzz       -0.107770D+03     -0.931047D+00     -0.345549D+00

 ----------------------------------------------------------------------

 Dipole orientation:
     6         -0.00833401          0.00149769          2.70782640
     6         -0.00253190         -0.01845733         -0.21359479
     8          2.00886322          0.58292588         -1.22165606
     8         -2.02348579         -0.58690798         -1.22164893
     1          1.85861750         -0.39596093          3.45099865
     1         -0.55360401          1.87972434          3.33979489
     1         -1.37227088         -1.33387525          3.45096095

 Electric dipole moment (dipole orientation):
 (Debye = 10**-18 statcoulomb cm , SI units = C m)
                  (au)            (Debye)         (10**-30 SI)
   Tot        0.158507D+01      0.402885D+01      0.134388D+02
   x          0.000000D+00      0.000000D+00      0.000000D+00
   y          0.000000D+00      0.000000D+00      0.000000D+00
   z          0.158507D+01      0.402885D+01      0.134388D+02

 Dipole polarizability, Alpha (dipole orientation).
 (esu units = cm**3 , SI units = C**2 m**2 J**-1)
 Alpha(0;0):
               (au)            (10**-24 esu)      (10**-40 SI)
   iso        0.378805D+02      0.561330D+01      0.624564D+01
   aniso      0.112249D+02      0.166336D+01      0.185074D+01
   xx         0.407566D+02      0.603950D+01      0.671985D+01
   yx         0.300378D+01      0.445114D+00      0.495257D+00
   yy         0.312741D+02      0.463435D+01      0.515640D+01
   zx        -0.694531D-01     -0.102919D-01     -0.114513D-01
   zy         0.238715D+00      0.353739D-01      0.393587D-01
   zz         0.416107D+02      0.616606D+01      0.686067D+01

 First dipole hyperpolarizability, Beta (dipole orientation).
 ||, _|_  parallel and perpendicular components, (z) with respect to z axis,
 vector components x,y,z.  Values do not include the 1/n! factor of 1/2.
 (esu units = statvolt**-1 cm**4 , SI units = C**3 m**3 J**-2)
 Beta(0;0,0):
               (au)            (10**-30 esu)      (10**-50 SI)
   || (z)     0.123818D+03      0.106969D+01      0.397004D+00
   _|_(z)     0.412725D+02      0.356562D+00      0.132335D+00
   x         -0.125074D+02     -0.108055D+00     -0.401034D-01
   y          0.430282D+02      0.371730D+00      0.137964D+00
   z          0.619088D+03      0.534844D+01      0.198502D+01
   ||         0.124141D+03      0.107249D+01      0.398042D+00
   xxx        0.443877D+01      0.383475D-01      0.142323D-01
   xxy       -0.343477D+01     -0.296737D-01     -0.110131D-01
   yxy       -0.688202D+01     -0.594553D-01     -0.220662D-01
   yyy        0.118366D+02      0.102259D+00      0.379526D-01
   xxz        0.707809D+02      0.611492D+00      0.226949D+00
   yxz        0.135461D+02      0.117028D+00      0.434337D-01
   yyz        0.280179D+02      0.242053D+00      0.898354D-01
   zxz       -0.172590D+01     -0.149104D-01     -0.553386D-02
   zyz        0.594085D+01      0.513243D-01      0.190485D-01
   zzz        0.107564D+03      0.929268D+00      0.344888D+00

 ----------------------------------------------------------------------

 Test job not archived.
 1\1\NSC-N144\Freq\RHF\Aug-CC-pVTZ\C2H3O2(1-)\X_DAVVA\28-Sep-2025\0\\#P
  Geom=AllCheck Guess=TCheck SCRF=Check Test GenChk RHF/Aug-CC-pVTZ Fre
 q\\acetate\\-1,1\C,-0.003805389,0.0165337571,-1.4328265865\C,-0.001387
 5545,0.0083997878,0.1131387555\O,1.0627724786,-0.3162681098,0.64314399
 74\O,-1.0710561125,0.3027415438,0.6497248962\H,0.9843081615,0.23159714
 71,-1.8231074758\H,-0.2922061388,-0.9732638863,-1.7793651859\H,-0.7254
 054653,0.7278878704,-1.8178078111\\Version=ES64L-G16RevC.01\State=1-A\
 HF=-227.3307588\RMSD=1.364e-09\RMSF=8.730e-08\ZeroPoint=0.0513245\Ther
 mal=0.055624\ETot=-227.2751347\HTot=-227.2741905\GTot=-227.3070797\Dip
 ole=0.000669,0.019166,-1.584954\DipoleDeriv=0.2425576,-0.0012259,-0.01
 57179,-0.00129,0.2390128,-0.0467464,-0.0096895,-0.0260198,-0.4462175,2
 .3181955,-0.6172911,-0.0075151,-0.6173365,0.3694237,-0.0181863,-0.0032
 248,-0.0033976,1.7704218,-1.6593936,0.3086679,-0.3416497,0.3309424,-0.
 690094,0.1097205,-0.5459828,0.1616471,-1.1225759,-1.6658358,0.3112371,
 0.3509349,0.2890044,-0.6781335,-0.091059,0.5512918,-0.1566673,-1.12810
 34,-0.1855646,-0.0553543,0.1534715,-0.0570334,0.0336384,0.049209,0.069
 6862,0.0176735,-0.0337881,0.0228069,-0.0687647,-0.0366911,-0.0690157,-
 0.1935269,-0.1258837,-0.0131264,-0.0446918,-0.0071179,-0.072766,0.1227
 311,-0.1028326,0.1247288,-0.0803205,0.1229459,-0.0489546,0.0514559,-0.
 0326189\Polar=40.7565367,-3.0044734,31.2698658,0.0327656,0.112401,41.6
 149484\PolarDeriv=-2.8887291,-2.6570428,3.3036192,5.4824499,-0.5051539
 ,0.0599925,-2.2892307,3.2003861,3.5334512,-0.504744,3.8429765,0.467844
 6,3.3959053,-0.2556938,2.544141,-0.0778838,-0.0294846,-13.3466518,0.54
 22528,0.5123462,-0.401589,-4.9119521,1.0718312,-0.0503505,0.654096,-0.
 4454329,0.0058288,1.070753,-1.5171045,-0.4653598,-5.2222187,1.4347894,
 -0.6818682,0.0106268,-0.2594502,17.01872,7.8239517,-0.9753496,2.577322
 8,2.9539228,-0.2631313,0.5494084,-1.0418139,2.7282905,-2.225692,-0.162
 8228,1.9278038,-0.1121749,3.2447922,-0.5255964,1.2250519,1.8995167,-0.
 5321685,-0.4307643,-8.0932834,0.7310244,-2.3822315,2.8859938,-0.326657
 ,-0.5602993,0.5945401,-2.4694799,2.1924083,-0.4261682,2.045604,0.21153
 08,3.1669313,-0.6903273,1.3436712,-1.9278599,0.5789974,-0.4037431,6.67
 9842,1.2685073,1.2376699,-3.2034507,-0.5540392,3.2226986,1.2697505,0.7
 881285,0.4025004,-0.6552301,-0.9883057,0.7460629,-2.271234,-0.4138406,
 -0.7213498,1.5792223,0.4676197,-1.1132152,-0.8427381,-1.0403465,-1.720
 1999,-1.187964,-0.6261634,-0.9198662,-1.5920719,-1.5631627,-7.1826646,
 -0.6298334,-3.1529388,-3.1832656,-0.8715477,-0.4195933,-2.1858524,-0.4
 174194,-1.449855,-0.6446939,-3.2212958,2.160861,-2.6145915,-2.0189997,
 1.2033136,-2.3015835,2.4047299,-2.2387296,3.2741679,1.3080455,-2.15803
 53,2.335362,-1.4426285,0.870262,-1.5237937,-1.0662026,1.2243413,-1.079
 6517\HyperPolar=4.5283627,4.2789371,-7.1970502,-10.820219,-70.7310328,
 13.4839696,-28.0218361,-1.4133256,-5.3051421,-107.7697896\Quadrupole=-
 2.9645838,3.6657334,-0.7011496,2.1004062,0.0287159,0.0684222\PG=C01 [X
 (C2H3O2)]\NImag=0\\0.63846045,-0.02076762,0.57306026,-0.00450045,-0.01
 384936,0.49055189,-0.08084296,-0.00772415,-0.00018857,0.98669818,-0.00
 772593,-0.10523774,0.00023767,-0.19599932,0.36798235,-0.00001592,0.000
 82537,-0.16173829,-0.00281458,-0.00558237,0.65527607,-0.01243799,0.011
 02865,-0.02087038,-0.44432289,0.10569412,-0.20011672,0.57916281,0.0096
 6094,0.02459055,0.00774371,0.10463044,-0.13297315,0.06263596,-0.164039
 28,0.08498787,-0.04633486,0.01755924,-0.03660914,-0.17797596,0.0565042
 4,-0.24288345,0.22937466,-0.07297823,0.23669801,-0.01078696,0.01154263
 ,0.02164798,-0.44804913,0.09468533,0.20389159,-0.12906091,0.04799665,0
 .00111673,0.58328923,0.01289631,0.02335982,-0.00460206,0.09574732,-0.1
 2689009,-0.05453348,0.04731339,0.02140061,-0.00137324,-0.15258482,0.07
 799654,0.04841431,-0.00993023,-0.03703350,0.18190954,-0.04785889,-0.24
 523707,-0.00055407,-0.00089066,0.05487456,-0.23504312,0.06170736,0.239
 56095,-0.28492022,-0.04978007,0.09088258,-0.00617567,0.00232293,-0.005
 27774,0.00456329,-0.00020174,-0.00097922,0.00216185,-0.00061245,0.0033
 1878,0.31100856,-0.04750807,-0.06675600,0.02220783,0.00040314,-0.00086
 747,-0.00266248,0.00112567,-0.00045296,0.00084896,0.00009666,0.0014310
 6,-0.00115316,0.05586872,0.06524767,0.08461174,0.02411453,-0.08855320,
 0.03714634,0.00947540,-0.00057107,-0.00372348,-0.00193167,0.00271133,0
 .00245626,-0.00369457,-0.01256846,-0.09764598,-0.02204600,0.09039214,-
 0.07039387,-0.06532629,-0.02282484,-0.00128848,0.00001100,0.00126948,-
 0.00004603,0.00182383,-0.00169679,-0.00028060,-0.00093594,0.00067602,-
 0.00763998,-0.03189493,-0.01146760,0.07124498,-0.06530896,-0.27550285,
 -0.07833682,0.00014962,-0.00082179,0.00440873,-0.00055879,0.00103955,-
 0.00138978,0.00139509,0.00129412,-0.00208343,-0.00241526,-0.00607451,-
 0.00114183,0.07350049,0.30211408,-0.02434016,-0.08356200,-0.07898654,-
 0.01181292,-0.04066311,-0.00444401,0.00002689,0.00720727,-0.00226637,0
 .00382515,0.00611383,-0.00228228,0.00252502,0.01305039,0.00427493,0.02
 495569,0.08565328,0.07950005,-0.17907845,0.12102684,-0.06414632,-0.006
 01906,0.00101187,0.00306389,0.00214173,0.00012916,-0.00350456,0.002726
 52,-0.00182381,0.00127853,-0.01899783,0.02190881,-0.01137728,0.0084039
 8,-0.00676220,0.00482032,0.19082311,0.11875333,-0.17351405,0.06659903,
 0.00279294,-0.00119211,-0.00509174,-0.00056377,0.00140753,0.00082882,-
 0.00313155,0.00140795,0.00020901,-0.00518213,0.00747221,-0.00477586,0.
 02282185,-0.02204860,0.01220034,-0.13549067,0.18646707,-0.05783466,0.0
 6484247,-0.08763123,-0.02626385,0.02788706,-0.00040219,-0.00413689,-0.
 00178639,-0.01252494,0.00210541,-0.00361785,0.00268580,0.00717655,-0.0
 1024555,0.00431432,0.00908804,-0.00711014,0.00420423,0.06986541,-0.069
 96961,0.08935401\\0.00000006,-0.00000002,0.,-0.00000033,0.00000010,0.,
 0.00000013,-0.00000003,0.00000003,0.00000013,-0.00000004,-0.00000003,0
 .00000001,0.,-0.00000001,0.,0.,0.,0.,0.,0.00000001\\\@


 THE MOST SERIOUS THREAT TO THE SURVIVAL OF MANKIND IS NOT NOW
 IGNORANCE IN THE TRADITIONAL SENSE,
 BUT A MORALLY NEUTRAL, AN INSENSITIVE OR INHIBITED HUMAN INTELLIGENCE.

                     -- MARGO JEFFERSON IN NEWSWEEK, SEPTEMBER 2, 1974
 Job cpu time:       0 days  0 hours 12 minutes 54.4 seconds.
 Elapsed time:       0 days  0 hours  1 minutes 38.3 seconds.
 File lengths (MBytes):  RWF=     49 Int=      0 D2E=      0 Chk=     12 Scr=      1
 Normal termination of Gaussian 16 at Sun Sep 28 21:26:18 2025.
