 Entering Gaussian System, Link 0=/software/sse/easybuild/prefix/software/Gaussian/16.C.01-avx2-nsc1/g16/g16.orig
 Input=ethylammonium.wrap
 Output=ethylammonium.log
 Initial command:
 /software/sse/easybuild/prefix/software/Gaussian/16.C.01-avx2-nsc1/g16/l1.exe "/scratch/local/Gau-1919435.inp" -scrdir="/scratch/local/"
 Entering Link 1 = /software/sse/easybuild/prefix/software/Gaussian/16.C.01-avx2-nsc1/g16/l1.exe PID=   1919447.
  
 Copyright (c) 1988-2019, Gaussian, Inc.  All Rights Reserved.
  
 This is part of the Gaussian(R) 16 program.  It is based on
 the Gaussian(R) 09 system (copyright 2009, Gaussian, Inc.),
 the Gaussian(R) 03 system (copyright 2003, Gaussian, Inc.),
 the Gaussian(R) 98 system (copyright 1998, Gaussian, Inc.),
 the Gaussian(R) 94 system (copyright 1995, Gaussian, Inc.),
 the Gaussian 92(TM) system (copyright 1992, Gaussian, Inc.),
 the Gaussian 90(TM) system (copyright 1990, Gaussian, Inc.),
 the Gaussian 88(TM) system (copyright 1988, Gaussian, Inc.),
 the Gaussian 86(TM) system (copyright 1986, Carnegie Mellon
 University), and the Gaussian 82(TM) system (copyright 1983,
 Carnegie Mellon University). Gaussian is a federally registered
 trademark of Gaussian, Inc.
  
 This software contains proprietary and confidential information,
 including trade secrets, belonging to Gaussian, Inc.
  
 This software is provided under written license and may be
 used, copied, transmitted, or stored only in accord with that
 written license.
  
 The following legend is applicable only to US Government
 contracts under FAR:
  
                    RESTRICTED RIGHTS LEGEND
  
 Use, reproduction and disclosure by the US Government is
 subject to restrictions as set forth in subparagraphs (a)
 and (c) of the Commercial Computer Software - Restricted
 Rights clause in FAR 52.227-19.
  
 Gaussian, Inc.
 340 Quinnipiac St., Bldg. 40, Wallingford CT 06492
  
  
 ---------------------------------------------------------------
 Warning -- This program may not be used in any manner that
 competes with the business of Gaussian, Inc. or will provide
 assistance to any competitor of Gaussian, Inc.  The licensee
 of this program is prohibited from giving any competitor of
 Gaussian, Inc. access to this program.  By using this program,
 the user acknowledges that Gaussian, Inc. is engaged in the
 business of creating and licensing software in the field of
 computational chemistry and represents and warrants to the
 licensee that it is not a competitor of Gaussian, Inc. and that
 it will not use this program in any manner prohibited above.
 ---------------------------------------------------------------
  

 Cite this work as:
 Gaussian 16, Revision C.01,
 M. J. Frisch, G. W. Trucks, H. B. Schlegel, G. E. Scuseria, 
 M. A. Robb, J. R. Cheeseman, G. Scalmani, V. Barone, 
 G. A. Petersson, H. Nakatsuji, X. Li, M. Caricato, A. V. Marenich, 
 J. Bloino, B. G. Janesko, R. Gomperts, B. Mennucci, H. P. Hratchian, 
 J. V. Ortiz, A. F. Izmaylov, J. L. Sonnenberg, D. Williams-Young, 
 F. Ding, F. Lipparini, F. Egidi, J. Goings, B. Peng, A. Petrone, 
 T. Henderson, D. Ranasinghe, V. G. Zakrzewski, J. Gao, N. Rega, 
 G. Zheng, W. Liang, M. Hada, M. Ehara, K. Toyota, R. Fukuda, 
 J. Hasegawa, M. Ishida, T. Nakajima, Y. Honda, O. Kitao, H. Nakai, 
 T. Vreven, K. Throssell, J. A. Montgomery, Jr., J. E. Peralta, 
 F. Ogliaro, M. J. Bearpark, J. J. Heyd, E. N. Brothers, K. N. Kudin, 
 V. N. Staroverov, T. A. Keith, R. Kobayashi, J. Normand, 
 K. Raghavachari, A. P. Rendell, J. C. Burant, S. S. Iyengar, 
 J. Tomasi, M. Cossi, J. M. Millam, M. Klene, C. Adamo, R. Cammi, 
 J. W. Ochterski, R. L. Martin, K. Morokuma, O. Farkas, 
 J. B. Foresman, and D. J. Fox, Gaussian, Inc., Wallingford CT, 2019.
 
 ******************************************
 Gaussian 16:  ES64L-G16RevC.01  3-Jul-2019
                30-Sep-2025 
 ******************************************
 %mem=12000MB
 %nprocshared=16
 Will use up to   16 processors via shared memory.
 %mem=32Gb
 %chk=ethylammonium.chk
 ----------------------------------------------------------------------
 #P MP2/aug-cc-pvtz Opt=tight density=MP2 Pop=(MK,Hirshfeld) iop(6/33=2
 ) iop(6/42=6) maxdisk=128GB
 ----------------------------------------------------------------------
 1/7=10,18=20,19=15,38=1/1,3;
 2/9=110,12=2,17=6,18=5,40=1/2;
 3/5=16,6=1,7=10,11=9,25=1,30=1,71=1/1,2,3;
 4//1;
 5/5=2,38=5/2;
 8/6=4,10=1/1;
 9/15=2,16=-3/6;
 10/5=1/2;
 6/7=2,8=2,9=2,10=2,15=8,20=1,22=2,33=2,42=6,79=1/1,2;
 7/12=2/1,2,3,16;
 1/7=10,18=20,19=15/3(2);
 2/9=110/2;
 99//99;
 2/9=110/2;
 3/5=16,6=1,7=10,11=9,25=1,30=1,71=1/1,2,3;
 4/5=5,16=3,69=1/1;
 5/5=2,38=5/2;
 8/6=4,10=1/1;
 9/15=2,16=-3/6;
 10/5=1/2;
 7/12=2/1,2,3,16;
 1/7=10,18=20,19=15/3(-8);
 2/9=110/2;
 6/7=2,8=2,9=2,10=2,15=8,20=1,22=2,33=2,42=6,79=1/1,2;
 99/9=10/99;
 Leave Link    1 at Tue Sep 30 16:58:49 2025, MaxMem=  4294967296 cpu:               1.7 elap:               0.1
 (Enter /software/sse/easybuild/prefix/software/Gaussian/16.C.01-avx2-nsc1/g16/l101.exe)
 -------------
 ethylammonium
 -------------
 Symbolic Z-matrix:
 Charge =  1 Multiplicity = 1
 N                    -1.17155  -0.35108   0. 
 C                     0.        0.60968   0. 
 H                    -2.05186   0.13826   0. 
 H                    -1.15209  -0.94693   0.81212 
 H                    -1.15209  -0.94693  -0.81212 
 H                    -0.11903   1.22455   0.8784 
 H                    -0.11903   1.22455  -0.8784 
 C                     1.30898  -0.15165   0. 
 H                     1.4092   -0.77193   0.88248 
 H                     2.12267   0.55969   0. 
 H                     1.4092   -0.77193  -0.88248 
 
 ITRead=  0  0  0  0  0  0  0  0  0  0  0
 MicOpt= -1 -1 -1 -1 -1 -1 -1 -1 -1 -1 -1
 NAtoms=     11 NQM=       11 NQMF=       0 NMMI=      0 NMMIF=      0
                NMic=       0 NMicF=      0.
                    Isotopes and Nuclear Properties:
 (Nuclear quadrupole moments (NQMom) in fm**2, nuclear magnetic moments (NMagM)
  in nuclear magnetons)

  Atom         1           2           3           4           5           6           7           8           9          10
 IAtWgt=          14          12           1           1           1           1           1          12           1           1
 AtmWgt=  14.0030740  12.0000000   1.0078250   1.0078250   1.0078250   1.0078250   1.0078250  12.0000000   1.0078250   1.0078250
 NucSpn=           2           0           1           1           1           1           1           0           1           1
 AtZEff=  -0.0000000  -0.0000000  -0.0000000  -0.0000000  -0.0000000  -0.0000000  -0.0000000  -0.0000000  -0.0000000  -0.0000000
 NQMom=    2.0440000   0.0000000   0.0000000   0.0000000   0.0000000   0.0000000   0.0000000   0.0000000   0.0000000   0.0000000
 NMagM=    0.4037610   0.0000000   2.7928460   2.7928460   2.7928460   2.7928460   2.7928460   0.0000000   2.7928460   2.7928460
 AtZNuc=   7.0000000   6.0000000   1.0000000   1.0000000   1.0000000   1.0000000   1.0000000   6.0000000   1.0000000   1.0000000

  Atom        11
 IAtWgt=           1
 AtmWgt=   1.0078250
 NucSpn=           1
 AtZEff=  -0.0000000
 NQMom=    0.0000000
 NMagM=    2.7928460
 AtZNuc=   1.0000000
 Leave Link  101 at Tue Sep 30 16:58:50 2025, MaxMem=  4294967296 cpu:               5.1 elap:               0.3
 (Enter /software/sse/easybuild/prefix/software/Gaussian/16.C.01-avx2-nsc1/g16/l103.exe)

 GradGradGradGradGradGradGradGradGradGradGradGradGradGradGradGradGradGrad
 Berny optimization.
 Initialization pass.
                           ----------------------------
                           !    Initial Parameters    !
                           ! (Angstroms and Degrees)  !
 --------------------------                            --------------------------
 ! Name  Definition              Value          Derivative Info.                !
 --------------------------------------------------------------------------------
 ! R1    R(1,2)                  1.5151         estimate D2E/DX2                !
 ! R2    R(1,3)                  1.0072         estimate D2E/DX2                !
 ! R3    R(1,4)                  1.0074         estimate D2E/DX2                !
 ! R4    R(1,5)                  1.0074         estimate D2E/DX2                !
 ! R5    R(2,6)                  1.0788         estimate D2E/DX2                !
 ! R6    R(2,7)                  1.0788         estimate D2E/DX2                !
 ! R7    R(2,8)                  1.5143         estimate D2E/DX2                !
 ! R8    R(8,9)                  1.0833         estimate D2E/DX2                !
 ! R9    R(8,10)                 1.0808         estimate D2E/DX2                !
 ! R10   R(8,11)                 1.0833         estimate D2E/DX2                !
 ! A1    A(2,1,3)              111.5772         estimate D2E/DX2                !
 ! A2    A(2,1,4)              111.1068         estimate D2E/DX2                !
 ! A3    A(2,1,5)              111.1068         estimate D2E/DX2                !
 ! A4    A(3,1,4)              107.7124         estimate D2E/DX2                !
 ! A5    A(3,1,5)              107.7124         estimate D2E/DX2                !
 ! A6    A(4,1,5)              107.4361         estimate D2E/DX2                !
 ! A7    A(1,2,6)              106.0277         estimate D2E/DX2                !
 ! A8    A(1,2,7)              106.0277         estimate D2E/DX2                !
 ! A9    A(1,2,8)              110.4625         estimate D2E/DX2                !
 ! A10   A(6,2,7)              109.0235         estimate D2E/DX2                !
 ! A11   A(6,2,8)              112.4533         estimate D2E/DX2                !
 ! A12   A(7,2,8)              112.4533         estimate D2E/DX2                !
 ! A13   A(2,8,9)              111.5826         estimate D2E/DX2                !
 ! A14   A(2,8,10)             108.6564         estimate D2E/DX2                !
 ! A15   A(2,8,11)             111.5826         estimate D2E/DX2                !
 ! A16   A(9,8,10)             107.8908         estimate D2E/DX2                !
 ! A17   A(9,8,11)             109.0984         estimate D2E/DX2                !
 ! A18   A(10,8,11)            107.8908         estimate D2E/DX2                !
 ! D1    D(3,1,2,6)             57.9046         estimate D2E/DX2                !
 ! D2    D(3,1,2,7)            -57.9046         estimate D2E/DX2                !
 ! D3    D(3,1,2,8)            180.0            estimate D2E/DX2                !
 ! D4    D(4,1,2,6)            -62.3169         estimate D2E/DX2                !
 ! D5    D(4,1,2,7)           -178.1262         estimate D2E/DX2                !
 ! D6    D(4,1,2,8)             59.7784         estimate D2E/DX2                !
 ! D7    D(5,1,2,6)            178.1262         estimate D2E/DX2                !
 ! D8    D(5,1,2,7)             62.3169         estimate D2E/DX2                !
 ! D9    D(5,1,2,8)            -59.7784         estimate D2E/DX2                !
 ! D10   D(1,2,8,9)            -61.1676         estimate D2E/DX2                !
 ! D11   D(1,2,8,10)           180.0            estimate D2E/DX2                !
 ! D12   D(1,2,8,11)            61.1676         estimate D2E/DX2                !
 ! D13   D(6,2,8,9)             57.0663         estimate D2E/DX2                !
 ! D14   D(6,2,8,10)           -61.7661         estimate D2E/DX2                !
 ! D15   D(6,2,8,11)           179.4015         estimate D2E/DX2                !
 ! D16   D(7,2,8,9)           -179.4015         estimate D2E/DX2                !
 ! D17   D(7,2,8,10)            61.7661         estimate D2E/DX2                !
 ! D18   D(7,2,8,11)           -57.0663         estimate D2E/DX2                !
 --------------------------------------------------------------------------------
 Trust Radius=3.00D-01 FncErr=1.00D-07 GrdErr=1.00D-07 EigMax=2.50D+02 EigMin=1.00D-04
 Number of steps in this run=     56 maximum allowed number of steps=    100.
 GradGradGradGradGradGradGradGradGradGradGradGradGradGradGradGradGradGrad

 Leave Link  103 at Tue Sep 30 16:58:50 2025, MaxMem=  4294967296 cpu:               0.2 elap:               0.0
 (Enter /software/sse/easybuild/prefix/software/Gaussian/16.C.01-avx2-nsc1/g16/l202.exe)
                          Input orientation:                          
 ---------------------------------------------------------------------
 Center     Atomic      Atomic             Coordinates (Angstroms)
 Number     Number       Type             X           Y           Z
 ---------------------------------------------------------------------
      1          7           0       -1.171550   -0.351080    0.000000
      2          6           0        0.000000    0.609680    0.000000
      3          1           0       -2.051860    0.138260    0.000000
      4          1           0       -1.152090   -0.946930    0.812120
      5          1           0       -1.152090   -0.946930   -0.812120
      6          1           0       -0.119030    1.224550    0.878400
      7          1           0       -0.119030    1.224550   -0.878400
      8          6           0        1.308980   -0.151650    0.000000
      9          1           0        1.409200   -0.771930    0.882480
     10          1           0        2.122670    0.559690    0.000000
     11          1           0        1.409200   -0.771930   -0.882480
 ---------------------------------------------------------------------
                    Distance matrix (angstroms):
                    1          2          3          4          5
     1  N    0.000000
     2  C    1.515120   0.000000
     3  H    1.007174   2.105319   0.000000
     4  H    1.007450   2.099973   1.626887   0.000000
     5  H    1.007450   2.099973   1.626887   1.624240   0.000000
     6  H    2.088539   1.078805   2.384836   2.405604   2.939455
     7  H    2.088539   1.078805   2.384836   2.939455   2.405604
     8  C    2.488534   1.514283   3.373321   2.710881   2.710881
     9  H    2.759738   2.161819   3.685940   2.568225   3.076118
    10  H    3.417804   2.123259   4.195748   3.695064   3.695064
    11  H    2.759738   2.161819   3.685940   3.076118   2.568225
                    6          7          8          9         10
     6  H    0.000000
     7  H    1.756800   0.000000
     8  C    2.169038   2.169038   0.000000
     9  H    2.514247   3.069547   1.083311   0.000000
    10  H    2.497768   2.497768   1.080785   1.749578   0.000000
    11  H    3.069547   2.514247   1.083311   1.764960   1.749578
                   11
    11  H    0.000000
 Stoichiometry    C2H8N(1+)
 Framework group  CS[SG(C2H2N),X(H6)]
 Deg. of freedom    16
 Full point group                 CS      NOp   2
 Largest Abelian subgroup         CS      NOp   2
 Largest concise Abelian subgroup CS      NOp   2
                         Standard orientation:                         
 ---------------------------------------------------------------------
 Center     Atomic      Atomic             Coordinates (Angstroms)
 Number     Number       Type             X           Y           Z
 ---------------------------------------------------------------------
      1          7           0       -1.171550   -0.351078    0.000000
      2          6           0       -0.000000    0.609682    0.000000
      3          1           0       -2.051860    0.138262    0.000000
      4          1           0       -1.152090   -0.946928    0.812120
      5          1           0       -1.152090   -0.946928   -0.812120
      6          1           0       -0.119030    1.224552    0.878400
      7          1           0       -0.119030    1.224552   -0.878400
      8          6           0        1.308980   -0.151648    0.000000
      9          1           0        1.409200   -0.771928    0.882480
     10          1           0        2.122670    0.559692    0.000000
     11          1           0        1.409200   -0.771928   -0.882480
 ---------------------------------------------------------------------
 Rotational constants (GHZ):          29.8923434           8.4092946           7.4216156
 Leave Link  202 at Tue Sep 30 16:58:50 2025, MaxMem=  4294967296 cpu:               0.1 elap:               0.0
 (Enter /software/sse/easybuild/prefix/software/Gaussian/16.C.01-avx2-nsc1/g16/l301.exe)
 Standard basis: Aug-CC-pVTZ (5D, 7F)
 Ernie: Thresh=  0.10000D-02 Tol=  0.10000D-05 Strict=F.
 Ernie:  9 primitive shells out of 178 were deleted.
 There are   222 symmetry adapted cartesian basis functions of A'  symmetry.
 There are   143 symmetry adapted cartesian basis functions of A"  symmetry.
 There are   191 symmetry adapted basis functions of A'  symmetry.
 There are   131 symmetry adapted basis functions of A"  symmetry.
   322 basis functions,   432 primitive gaussians,   365 cartesian basis functions
    13 alpha electrons       13 beta electrons
       nuclear repulsion energy        90.4610123667 Hartrees.
 IExCor=    0 DFT=F Ex=HF Corr=None ExCW=0 ScaHFX=  1.000000
 ScaDFX=  1.000000  1.000000  1.000000  1.000000 ScalE2=  1.000000  1.000000
 IRadAn=      5 IRanWt=     -1 IRanGd=            0 ICorTp=0 IEmpDi=  4
 NAtoms=   11 NActive=   11 NUniq=    8 SFac= 1.89D+00 NAtFMM=   60 NAOKFM=F Big=F
 Integral buffers will be    131072 words long.
 Raffenetti 1 integral format.
 Two-electron integral symmetry is turned on.
 Leave Link  301 at Tue Sep 30 16:58:51 2025, MaxMem=  4294967296 cpu:               0.8 elap:               0.1
 (Enter /software/sse/easybuild/prefix/software/Gaussian/16.C.01-avx2-nsc1/g16/l302.exe)
 NPDir=0 NMtPBC=     1 NCelOv=     1 NCel=       1 NClECP=     1 NCelD=      1
         NCelK=      1 NCelE2=     1 NClLst=     1 CellRange=     0.0.
 One-electron integrals computed using PRISM.
 One-electron integral symmetry used in STVInt
 NBasis=   322 RedAO= T EigKep=  1.26D-05  NBF=   191   131
 NBsUse=   322 1.00D-06 EigRej= -1.00D+00 NBFU=   191   131
 Leave Link  302 at Tue Sep 30 16:58:51 2025, MaxMem=  4294967296 cpu:               2.6 elap:               0.2
 (Enter /software/sse/easybuild/prefix/software/Gaussian/16.C.01-avx2-nsc1/g16/l303.exe)
 DipDrv:  MaxL=1.
 Leave Link  303 at Tue Sep 30 16:58:52 2025, MaxMem=  4294967296 cpu:               0.5 elap:               0.1
 (Enter /software/sse/easybuild/prefix/software/Gaussian/16.C.01-avx2-nsc1/g16/l401.exe)
 ExpMin= 2.53D-02 ExpMax= 1.14D+04 ExpMxC= 3.89D+02 IAcc=3 IRadAn=         5 AccDes= 0.00D+00
 Harris functional with IExCor=  205 and IRadAn=       5 diagonalized for initial guess.
 HarFok:  IExCor=  205 AccDes= 0.00D+00 IRadAn=         5 IDoV= 1 UseB2=F ITyADJ=14
 ICtDFT=  3500011 ScaDFX=  1.000000  1.000000  1.000000  1.000000
 FoFCou: FMM=F IPFlag=           0 FMFlag=      100000 FMFlg1=           0
         NFxFlg=           0 DoJE=T BraDBF=F KetDBF=T FulRan=T
         wScrn=  0.000000 ICntrl=       500 IOpCl=  0 I1Cent=   200000004 NGrid=           0
         NMat0=    1 NMatS0=      1 NMatT0=    0 NMatD0=    1 NMtDS0=    0 NMtDT0=    0
 Petite list used in FoFCou.
 Harris En= -135.034397065467    
 JPrj=0 DoOrth=F DoCkMO=F.
 Initial guess orbital symmetries:
       Occupied  (A') (A') (A') (A') (A') (A') (A") (A') (A') (A")
                 (A') (A') (A")
       Virtual   (A') (A') (A') (A") (A') (A') (A') (A") (A") (A')
                 (A') (A") (A') (A') (A") (A') (A') (A") (A') (A')
                 (A") (A') (A") (A") (A') (A') (A') (A') (A') (A')
                 (A") (A') (A") (A") (A") (A') (A') (A') (A") (A')
                 (A") (A") (A') (A') (A') (A") (A") (A') (A") (A')
                 (A') (A') (A') (A") (A') (A') (A") (A') (A') (A")
                 (A") (A') (A') (A") (A') (A") (A') (A") (A') (A')
                 (A') (A") (A') (A') (A") (A') (A") (A') (A') (A")
                 (A") (A') (A') (A") (A') (A") (A') (A") (A') (A")
                 (A') (A') (A") (A') (A') (A") (A") (A') (A") (A")
                 (A') (A') (A') (A") (A") (A') (A') (A') (A") (A')
                 (A') (A") (A") (A') (A") (A') (A') (A") (A') (A")
                 (A') (A") (A') (A") (A') (A') (A") (A') (A") (A')
                 (A') (A") (A") (A') (A') (A') (A") (A") (A') (A")
                 (A') (A') (A") (A') (A") (A') (A') (A") (A") (A')
                 (A') (A') (A") (A') (A") (A") (A') (A') (A") (A')
                 (A") (A') (A") (A') (A') (A") (A') (A') (A') (A")
                 (A') (A") (A') (A") (A') (A") (A') (A') (A") (A")
                 (A') (A') (A") (A') (A') (A") (A") (A') (A') (A')
                 (A') (A') (A") (A') (A") (A') (A") (A') (A") (A')
                 (A") (A') (A") (A") (A') (A') (A') (A") (A") (A')
                 (A") (A') (A") (A') (A') (A") (A') (A") (A') (A')
                 (A') (A") (A") (A") (A') (A") (A") (A') (A") (A")
                 (A') (A') (A') (A") (A') (A") (A') (A') (A') (A")
                 (A") (A') (A') (A") (A') (A") (A') (A') (A") (A')
                 (A') (A') (A") (A') (A') (A") (A') (A') (A") (A")
                 (A') (A') (A") (A") (A') (A') (A") (A') (A') (A")
                 (A") (A') (A") (A') (A') (A') (A") (A") (A") (A')
                 (A') (A") (A") (A') (A') (A') (A") (A') (A') (A")
                 (A') (A") (A') (A') (A") (A") (A') (A") (A') (A')
                 (A") (A') (A") (A') (A') (A") (A') (A') (A')
 The electronic state of the initial guess is 1-A'.
 Leave Link  401 at Tue Sep 30 16:58:53 2025, MaxMem=  4294967296 cpu:               5.2 elap:               0.3
 (Enter /software/sse/easybuild/prefix/software/Gaussian/16.C.01-avx2-nsc1/g16/l502.exe)
 Keep R1 ints in memory in symmetry-blocked form, NReq=2029357714.
 FoFCou: FMM=F IPFlag=           0 FMFlag=           0 FMFlg1=           0
         NFxFlg=           0 DoJE=F BraDBF=F KetDBF=F FulRan=T
         wScrn=  0.000000 ICntrl=       600 IOpCl=  0 I1Cent=           0 NGrid=           0
         NMat0=    1 NMatS0=  52003 NMatT0=    0 NMatD0=    1 NMtDS0=    0 NMtDT0=    0
 Petite list used in FoFCou.
 Closed shell SCF:
 Using DIIS extrapolation, IDIIS=  1040.
 NGot=  4294967296 LenX=  3617518067 LenY=  3617384401
 Requested convergence on RMS density matrix=1.00D-08 within 128 cycles.
 Requested convergence on MAX density matrix=1.00D-06.
 Requested convergence on             energy=1.00D-06.
 No special actions if energy rises.

 Cycle   1  Pass 1  IDiag  1:
 E= -134.500899558851    
 DIIS: error= 2.68D-02 at cycle   1 NSaved=   1.
 NSaved= 1 IEnMin= 1 EnMin= -134.500899558851     IErMin= 1 ErrMin= 2.68D-02
 ErrMax= 2.68D-02  0.00D+00 EMaxC= 1.00D-01 BMatC= 3.29D-01 BMatP= 3.29D-01
 IDIUse=3 WtCom= 7.32D-01 WtEn= 2.68D-01
 Coeff-Com:  0.100D+01
 Coeff-En:   0.100D+01
 Coeff:      0.100D+01
 Gap=     0.539 Goal=   None    Shift=    0.000
 GapD=    0.539 DampG=2.000 DampE=0.500 DampFc=1.0000 IDamp=-1.
 RMSDP=1.39D-03 MaxDP=6.09D-02              OVMax= 1.20D-01

 Cycle   2  Pass 1  IDiag  1:
 E= -134.651763060765     Delta-E=       -0.150863501914 Rises=F Damp=F
 DIIS: error= 1.16D-02 at cycle   2 NSaved=   2.
 NSaved= 2 IEnMin= 2 EnMin= -134.651763060765     IErMin= 2 ErrMin= 1.16D-02
 ErrMax= 1.16D-02  0.00D+00 EMaxC= 1.00D-01 BMatC= 2.67D-02 BMatP= 3.29D-01
 IDIUse=3 WtCom= 8.84D-01 WtEn= 1.16D-01
 Coeff-Com:  0.139D+00 0.861D+00
 Coeff-En:   0.000D+00 0.100D+01
 Coeff:      0.123D+00 0.877D+00
 Gap=     0.605 Goal=   None    Shift=    0.000
 RMSDP=5.26D-04 MaxDP=2.48D-02 DE=-1.51D-01 OVMax= 4.74D-02

 Cycle   3  Pass 1  IDiag  1:
 E= -134.673703989075     Delta-E=       -0.021940928311 Rises=F Damp=F
 DIIS: error= 3.32D-03 at cycle   3 NSaved=   3.
 NSaved= 3 IEnMin= 3 EnMin= -134.673703989075     IErMin= 3 ErrMin= 3.32D-03
 ErrMax= 3.32D-03  0.00D+00 EMaxC= 1.00D-01 BMatC= 1.92D-03 BMatP= 2.67D-02
 IDIUse=3 WtCom= 9.67D-01 WtEn= 3.32D-02
 Coeff-Com: -0.253D-01 0.164D+00 0.861D+00
 Coeff-En:   0.000D+00 0.000D+00 0.100D+01
 Coeff:     -0.244D-01 0.159D+00 0.866D+00
 Gap=     0.582 Goal=   None    Shift=    0.000
 RMSDP=1.07D-04 MaxDP=4.18D-03 DE=-2.19D-02 OVMax= 9.50D-03

 Cycle   4  Pass 1  IDiag  1:
 E= -134.675567905354     Delta-E=       -0.001863916279 Rises=F Damp=F
 DIIS: error= 4.51D-04 at cycle   4 NSaved=   4.
 NSaved= 4 IEnMin= 4 EnMin= -134.675567905354     IErMin= 4 ErrMin= 4.51D-04
 ErrMax= 4.51D-04  0.00D+00 EMaxC= 1.00D-01 BMatC= 3.20D-05 BMatP= 1.92D-03
 IDIUse=3 WtCom= 9.95D-01 WtEn= 4.51D-03
 Coeff-Com:  0.541D-03-0.308D-01-0.839D-01 0.111D+01
 Coeff-En:   0.000D+00 0.000D+00 0.000D+00 0.100D+01
 Coeff:      0.538D-03-0.307D-01-0.836D-01 0.111D+01
 Gap=     0.582 Goal=   None    Shift=    0.000
 RMSDP=3.06D-05 MaxDP=2.04D-03 DE=-1.86D-03 OVMax= 2.96D-03

 Cycle   5  Pass 1  IDiag  1:
 E= -134.675633165365     Delta-E=       -0.000065260011 Rises=F Damp=F
 DIIS: error= 1.08D-04 at cycle   5 NSaved=   5.
 NSaved= 5 IEnMin= 5 EnMin= -134.675633165365     IErMin= 5 ErrMin= 1.08D-04
 ErrMax= 1.08D-04  0.00D+00 EMaxC= 1.00D-01 BMatC= 3.55D-06 BMatP= 3.20D-05
 IDIUse=3 WtCom= 9.99D-01 WtEn= 1.08D-03
 Coeff-Com:  0.205D-02-0.150D-01-0.736D-01 0.147D-01 0.107D+01
 Coeff-En:   0.000D+00 0.000D+00 0.000D+00 0.000D+00 0.100D+01
 Coeff:      0.204D-02-0.150D-01-0.735D-01 0.147D-01 0.107D+01
 Gap=     0.583 Goal=   None    Shift=    0.000
 RMSDP=9.39D-06 MaxDP=5.31D-04 DE=-6.53D-05 OVMax= 1.01D-03

 Cycle   6  Pass 1  IDiag  1:
 E= -134.675640219811     Delta-E=       -0.000007054446 Rises=F Damp=F
 DIIS: error= 3.31D-05 at cycle   6 NSaved=   6.
 NSaved= 6 IEnMin= 6 EnMin= -134.675640219811     IErMin= 6 ErrMin= 3.31D-05
 ErrMax= 3.31D-05  0.00D+00 EMaxC= 1.00D-01 BMatC= 2.40D-07 BMatP= 3.55D-06
 IDIUse=1 WtCom= 1.00D+00 WtEn= 0.00D+00
 Coeff-Com:  0.325D-03-0.912D-03-0.688D-02-0.616D-01 0.151D+00 0.919D+00
 Coeff:      0.325D-03-0.912D-03-0.688D-02-0.616D-01 0.151D+00 0.919D+00
 Gap=     0.583 Goal=   None    Shift=    0.000
 RMSDP=1.96D-06 MaxDP=7.44D-05 DE=-7.05D-06 OVMax= 2.66D-04

 Cycle   7  Pass 1  IDiag  1:
 E= -134.675640595407     Delta-E=       -0.000000375596 Rises=F Damp=F
 DIIS: error= 8.18D-06 at cycle   7 NSaved=   7.
 NSaved= 7 IEnMin= 7 EnMin= -134.675640595407     IErMin= 7 ErrMin= 8.18D-06
 ErrMax= 8.18D-06  0.00D+00 EMaxC= 1.00D-01 BMatC= 1.96D-08 BMatP= 2.40D-07
 IDIUse=1 WtCom= 1.00D+00 WtEn= 0.00D+00
 Coeff-Com: -0.179D-03 0.140D-02 0.682D-02-0.144D-02-0.979D-01 0.435D-02
 Coeff-Com:  0.109D+01
 Coeff:     -0.179D-03 0.140D-02 0.682D-02-0.144D-02-0.979D-01 0.435D-02
 Coeff:      0.109D+01
 Gap=     0.583 Goal=   None    Shift=    0.000
 RMSDP=6.15D-07 MaxDP=2.04D-05 DE=-3.76D-07 OVMax= 6.31D-05

 Cycle   8  Pass 1  IDiag  1:
 E= -134.675640631331     Delta-E=       -0.000000035925 Rises=F Damp=F
 DIIS: error= 1.87D-06 at cycle   8 NSaved=   8.
 NSaved= 8 IEnMin= 8 EnMin= -134.675640631331     IErMin= 8 ErrMin= 1.87D-06
 ErrMax= 1.87D-06  0.00D+00 EMaxC= 1.00D-01 BMatC= 1.09D-09 BMatP= 1.96D-08
 IDIUse=1 WtCom= 1.00D+00 WtEn= 0.00D+00
 Coeff-Com: -0.287D-04 0.144D-03 0.667D-03 0.404D-02-0.124D-01-0.577D-01
 Coeff-Com:  0.814D-02 0.106D+01
 Coeff:     -0.287D-04 0.144D-03 0.667D-03 0.404D-02-0.124D-01-0.577D-01
 Coeff:      0.814D-02 0.106D+01
 Gap=     0.583 Goal=   None    Shift=    0.000
 RMSDP=1.44D-07 MaxDP=4.40D-06 DE=-3.59D-08 OVMax= 2.10D-05

 Cycle   9  Pass 1  IDiag  1:
 E= -134.675640633578     Delta-E=       -0.000000002247 Rises=F Damp=F
 DIIS: error= 5.25D-07 at cycle   9 NSaved=   9.
 NSaved= 9 IEnMin= 9 EnMin= -134.675640633578     IErMin= 9 ErrMin= 5.25D-07
 ErrMax= 5.25D-07  0.00D+00 EMaxC= 1.00D-01 BMatC= 8.61D-11 BMatP= 1.09D-09
 IDIUse=1 WtCom= 1.00D+00 WtEn= 0.00D+00
 Coeff-Com:  0.516D-05-0.525D-04-0.307D-03 0.377D-03 0.467D-02-0.615D-02
 Coeff-Com: -0.737D-01 0.125D+00 0.950D+00
 Coeff:      0.516D-05-0.525D-04-0.307D-03 0.377D-03 0.467D-02-0.615D-02
 Coeff:     -0.737D-01 0.125D+00 0.950D+00
 Gap=     0.583 Goal=   None    Shift=    0.000
 RMSDP=4.13D-08 MaxDP=1.31D-06 DE=-2.25D-09 OVMax= 4.10D-06

 Cycle  10  Pass 1  IDiag  1:
 E= -134.675640633712     Delta-E=       -0.000000000134 Rises=F Damp=F
 DIIS: error= 1.42D-07 at cycle  10 NSaved=  10.
 NSaved=10 IEnMin=10 EnMin= -134.675640633712     IErMin=10 ErrMin= 1.42D-07
 ErrMax= 1.42D-07  0.00D+00 EMaxC= 1.00D-01 BMatC= 3.17D-12 BMatP= 8.61D-11
 IDIUse=1 WtCom= 1.00D+00 WtEn= 0.00D+00
 Coeff-Com:  0.141D-05-0.579D-05-0.322D-04-0.292D-03 0.757D-03 0.382D-02
 Coeff-Com: -0.128D-02-0.659D-01 0.180D-01 0.105D+01
 Coeff:      0.141D-05-0.579D-05-0.322D-04-0.292D-03 0.757D-03 0.382D-02
 Coeff:     -0.128D-02-0.659D-01 0.180D-01 0.105D+01
 Gap=     0.583 Goal=   None    Shift=    0.000
 RMSDP=1.12D-08 MaxDP=3.45D-07 DE=-1.34D-10 OVMax= 1.04D-06

 Cycle  11  Pass 1  IDiag  1:
 E= -134.675640633719     Delta-E=       -0.000000000007 Rises=F Damp=F
 DIIS: error= 2.75D-08 at cycle  11 NSaved=  11.
 NSaved=11 IEnMin=11 EnMin= -134.675640633719     IErMin=11 ErrMin= 2.75D-08
 ErrMax= 2.75D-08  0.00D+00 EMaxC= 1.00D-01 BMatC= 7.41D-14 BMatP= 3.17D-12
 IDIUse=1 WtCom= 1.00D+00 WtEn= 0.00D+00
 Coeff-Com: -0.322D-06 0.250D-05 0.140D-04 0.265D-04-0.250D-03-0.292D-03
 Coeff-Com:  0.266D-02 0.345D-02-0.321D-01-0.126D+00 0.115D+01
 Coeff:     -0.322D-06 0.250D-05 0.140D-04 0.265D-04-0.250D-03-0.292D-03
 Coeff:      0.266D-02 0.345D-02-0.321D-01-0.126D+00 0.115D+01
 Gap=     0.583 Goal=   None    Shift=    0.000
 RMSDP=1.87D-09 MaxDP=6.71D-08 DE=-7.28D-12 OVMax= 2.08D-07

 SCF Done:  E(RHF) =  -134.675640634     A.U. after   11 cycles
            NFock= 11  Conv=0.19D-08     -V/T= 2.0004
 KE= 1.346160094352D+02 PE=-4.881250595043D+02 EE= 1.283723970687D+02
 Leave Link  502 at Tue Sep 30 16:59:07 2025, MaxMem=  4294967296 cpu:             145.3 elap:              13.4
 (Enter /software/sse/easybuild/prefix/software/Gaussian/16.C.01-avx2-nsc1/g16/l801.exe)
 ExpMin= 2.53D-02 ExpMax= 1.14D+04 ExpMxC= 3.89D+02 IAcc=3 IRadAn=         5 AccDes= 0.00D+00
 HarFok:  IExCor=  205 AccDes= 0.00D+00 IRadAn=         5 IDoV=-2 UseB2=F ITyADJ=14
 ICtDFT= 12500011 ScaDFX=  1.000000  1.000000  1.000000  1.000000
 Largest valence mixing into a core orbital is  1.82D-04
 Largest core mixing into a valence orbital is  2.66D-05
 Range of M.O.s used for correlation:     4   322
 NBasis=   322 NAE=    13 NBE=    13 NFC=     3 NFV=     0
 NROrb=    319 NOA=    10 NOB=    10 NVA=   309 NVB=   309

 **** Warning!!: The largest alpha MO coefficient is  0.55149480D+02

 Leave Link  801 at Tue Sep 30 16:59:07 2025, MaxMem=  4294967296 cpu:               0.9 elap:               0.1
 (Enter /software/sse/easybuild/prefix/software/Gaussian/16.C.01-avx2-nsc1/g16/l906.exe)
 Frozen-core derivative calculation, NFC=   3 NFV=   0.
 FulOut=F Deriv=T AODrv=T NAtomX=    11
   MMem=          15  MDisk=          10 MDiskD=          10
  W3Min=     1527890 MinDsk=     2919265 NBas6D=         365
 NBas2D=       67548    NTT=       66795    LW2=     3500000
    MDV=  4293712445 MDiskM=       58790 NBas2p=       45731
 Fully direct method using O(ONN) memory.
 IMap=   1   2   3   4   5   6   7   8   9  10  11  12  13
 JobTyp=1 Pass  1:  I=   4 to  13 NPSUse= 16 ParTrn=T ParDer=T DoDerP=T.
 Spin components of T(2) and E(2):
     alpha-alpha T2 =       0.1863886129D-01 E2=     -0.6178059727D-01
     alpha-beta  T2 =       0.1252588432D+00 E2=     -0.4532898164D+00
     beta-beta   T2 =       0.1863886129D-01 E2=     -0.6178059727D-01
 The integrals were generated   1 times.
 ANorm=    0.1078209889D+01
 E2 =    -0.5768510109D+00 EUMP2 =    -0.13525249164465D+03
 Leave Link  906 at Tue Sep 30 16:59:59 2025, MaxMem=  4294967296 cpu:             822.3 elap:              51.7
 (Enter /software/sse/easybuild/prefix/software/Gaussian/16.C.01-avx2-nsc1/g16/l1002.exe)
 Minotr:  Closed shell wavefunction.
          Computing MP2/KS-MP2 derivatives.
          Using Z-Vector for PSCF gradient.
          Skipping F1 and S1 gradient terms here.
          IDoAtm=11111111111
          Frozen-core window.
          Direct CPHF calculation.
          Differentiating once with respect to electric field.
                with respect to dipole field.
          Differentiating once with respect to nuclear coordinates.
          Using symmetry in CPHF.
          Requested convergence is 1.0D-10 RMS, and 1.0D-09 maximum.
          NewPWx=F KeepS1=T KeepF1=T KeepIn=T MapXYZ=F SortEE=F KeepMc=T.
 Keep R1 ints in memory in symmetry-blocked form, NReq=2029359816.
 FoFCou: FMM=F IPFlag=           0 FMFlag=           0 FMFlg1=           0
         NFxFlg=           0 DoJE=F BraDBF=F KetDBF=F FulRan=T
         wScrn=  0.000000 ICntrl=       600 IOpCl=  0 I1Cent=           0 NGrid=           0
         NMat0=    1 NMatS0=  52003 NMatT0=    0 NMatD0=    1 NMtDS0=    0 NMtDT0=    0
 Petite list used in FoFCou.
          MDV=    4294967296 using IRadAn=       5.
          Solving linear equations separately, MaxMat=       0.
          There are     1 degrees of freedom in the 1st order CPHF.  IDoFFX=0 NUNeed=     1.
 LinEq1:  Iter=  0 NonCon=     1 RMS=1.84D-03 Max=2.36D-02 NDo=     1
 AX will form     1 AO Fock derivatives at one time.
 LinEq1:  Iter=  1 NonCon=     1 RMS=5.62D-04 Max=7.71D-03 NDo=     1
 LinEq1:  Iter=  2 NonCon=     1 RMS=1.33D-04 Max=1.38D-03 NDo=     1
 LinEq1:  Iter=  3 NonCon=     1 RMS=2.68D-05 Max=4.12D-04 NDo=     1
 LinEq1:  Iter=  4 NonCon=     1 RMS=8.18D-06 Max=8.52D-05 NDo=     1
 LinEq1:  Iter=  5 NonCon=     1 RMS=2.17D-06 Max=2.55D-05 NDo=     1
 LinEq1:  Iter=  6 NonCon=     1 RMS=4.62D-07 Max=4.15D-06 NDo=     1
 LinEq1:  Iter=  7 NonCon=     1 RMS=9.18D-08 Max=8.47D-07 NDo=     1
 LinEq1:  Iter=  8 NonCon=     1 RMS=2.37D-08 Max=2.81D-07 NDo=     1
 LinEq1:  Iter=  9 NonCon=     1 RMS=5.28D-09 Max=6.94D-08 NDo=     1
 LinEq1:  Iter= 10 NonCon=     1 RMS=8.63D-10 Max=1.37D-08 NDo=     1
 LinEq1:  Iter= 11 NonCon=     1 RMS=1.12D-10 Max=1.81D-09 NDo=     1
 LinEq1:  Iter= 12 NonCon=     0 RMS=1.40D-11 Max=1.53D-10 NDo=     1
 Linear equations converged to 1.000D-10 1.000D-09 after    12 iterations.
 End of Minotr F.D. properties file   721 does not exist.
 End of Minotr F.D. properties file   722 does not exist.
 End of Minotr F.D. properties file   788 does not exist.
 Leave Link 1002 at Tue Sep 30 17:00:18 2025, MaxMem=  4294967296 cpu:             151.7 elap:              19.0
 (Enter /software/sse/easybuild/prefix/software/Gaussian/16.C.01-avx2-nsc1/g16/l601.exe)
 Copying SCF densities to generalized density rwf, IOpCl= 0 IROHF=0.
 SCF density gives NOpUse=  2 NOpAll=  2.

 **********************************************************************

            Population analysis using the MP2 Density.

 **********************************************************************

 Orbital symmetries:
 BldTbl:  Degeneracy threshold= 1.00D-02
       Occupied  (A') (A') (A') (A') (A') (A') (A") (A') (A') (A")
                 (A') (A') (A")
       Virtual   (A') (A") (A') (A') (A') (A") (A') (A") (A') (A')
                 (A') (A') (A") (A') (A') (A") (A') (A") (A") (A')
                 (A') (A") (A') (A") (A') (A') (A') (A') (A') (A")
                 (A') (A') (A") (A") (A") (A') (A") (A') (A") (A')
                 (A') (A") (A') (A") (A') (A') (A") (A') (A") (A')
                 (A') (A") (A') (A') (A') (A") (A') (A') (A") (A')
                 (A") (A") (A') (A') (A') (A") (A') (A') (A") (A')
                 (A') (A") (A") (A') (A') (A') (A") (A') (A") (A')
                 (A") (A') (A") (A') (A") (A') (A") (A') (A") (A')
                 (A') (A") (A') (A') (A") (A') (A") (A") (A') (A')
                 (A') (A") (A") (A') (A") (A') (A') (A') (A") (A')
                 (A') (A") (A") (A') (A") (A') (A') (A") (A") (A')
                 (A') (A") (A") (A') (A') (A") (A') (A") (A') (A")
                 (A') (A") (A') (A') (A') (A') (A") (A") (A') (A")
                 (A') (A") (A') (A") (A') (A') (A") (A') (A") (A')
                 (A') (A") (A') (A') (A") (A") (A') (A') (A") (A')
                 (A") (A') (A") (A') (A') (A") (A') (A') (A") (A')
                 (A') (A") (A') (A') (A") (A") (A') (A") (A') (A")
                 (A') (A") (A') (A') (A") (A") (A') (A') (A') (A')
                 (A') (A') (A") (A') (A") (A') (A") (A') (A") (A')
                 (A") (A") (A') (A') (A") (A') (A') (A") (A") (A')
                 (A") (A') (A') (A") (A') (A") (A') (A") (A') (A')
                 (A") (A') (A") (A") (A") (A') (A") (A') (A") (A")
                 (A') (A') (A") (A') (A') (A') (A") (A') (A") (A')
                 (A") (A') (A') (A") (A') (A") (A') (A') (A') (A")
                 (A') (A") (A') (A") (A') (A') (A") (A') (A") (A')
                 (A') (A") (A') (A") (A') (A") (A') (A') (A') (A")
                 (A") (A') (A") (A') (A') (A") (A') (A") (A") (A')
                 (A') (A") (A") (A') (A') (A") (A') (A') (A") (A')
                 (A') (A") (A') (A') (A") (A") (A') (A") (A') (A')
                 (A") (A') (A") (A') (A') (A") (A') (A') (A')
 The electronic state is 1-A'.
 Alpha  occ. eigenvalues --  -15.89492 -11.48407 -11.40154  -1.52362  -1.22972
 Alpha  occ. eigenvalues --   -1.06828  -0.98438  -0.97246  -0.85852  -0.81050
 Alpha  occ. eigenvalues --   -0.73243  -0.71990  -0.70178
 Alpha virt. eigenvalues --   -0.11866  -0.08327  -0.08305  -0.07566  -0.04817
 Alpha virt. eigenvalues --   -0.04628  -0.04224  -0.03953  -0.03439  -0.02331
 Alpha virt. eigenvalues --    0.00246   0.00450   0.00760   0.01046   0.02323
 Alpha virt. eigenvalues --    0.02350   0.03545   0.03750   0.04353   0.04913
 Alpha virt. eigenvalues --    0.06793   0.07925   0.07935   0.09284   0.09958
 Alpha virt. eigenvalues --    0.11160   0.13388   0.14360   0.15505   0.18216
 Alpha virt. eigenvalues --    0.18658   0.19449   0.19622   0.20291   0.20453
 Alpha virt. eigenvalues --    0.21022   0.21725   0.22210   0.22970   0.23265
 Alpha virt. eigenvalues --    0.23702   0.25283   0.25558   0.25690   0.25910
 Alpha virt. eigenvalues --    0.27641   0.28095   0.28860   0.29374   0.29675
 Alpha virt. eigenvalues --    0.30482   0.31109   0.33037   0.33705   0.35921
 Alpha virt. eigenvalues --    0.36222   0.37063   0.38199   0.38464   0.40550
 Alpha virt. eigenvalues --    0.41265   0.41507   0.42086   0.42768   0.43300
 Alpha virt. eigenvalues --    0.47291   0.48613   0.53609   0.54315   0.58264
 Alpha virt. eigenvalues --    0.59816   0.61101   0.63629   0.63995   0.64386
 Alpha virt. eigenvalues --    0.65429   0.65804   0.68425   0.69853   0.70698
 Alpha virt. eigenvalues --    0.70814   0.72763   0.73275   0.73711   0.75140
 Alpha virt. eigenvalues --    0.75711   0.76581   0.78180   0.78610   0.79052
 Alpha virt. eigenvalues --    0.79336   0.82009   0.82959   0.84083   0.84945
 Alpha virt. eigenvalues --    0.86236   0.88110   0.88627   0.89222   0.90422
 Alpha virt. eigenvalues --    0.93167   0.93729   0.95793   0.96570   0.96653
 Alpha virt. eigenvalues --    0.99095   1.00859   1.03471   1.03972   1.04473
 Alpha virt. eigenvalues --    1.06154   1.06525   1.07065   1.07098   1.09126
 Alpha virt. eigenvalues --    1.10688   1.12549   1.13104   1.14934   1.15143
 Alpha virt. eigenvalues --    1.18130   1.18746   1.22635   1.24000   1.26376
 Alpha virt. eigenvalues --    1.28093   1.28762   1.32210   1.32507   1.33223
 Alpha virt. eigenvalues --    1.36336   1.38616   1.39834   1.40404   1.42457
 Alpha virt. eigenvalues --    1.45267   1.45312   1.49418   1.50356   1.50700
 Alpha virt. eigenvalues --    1.52563   1.54082   1.54668   1.55000   1.56119
 Alpha virt. eigenvalues --    1.58296   1.60739   1.61488   1.65055   1.65338
 Alpha virt. eigenvalues --    1.68385   1.70554   1.74013   1.75278   1.75402
 Alpha virt. eigenvalues --    1.77662   1.78163   1.78908   1.80922   1.85183
 Alpha virt. eigenvalues --    1.85364   1.85649   1.89249   1.91870   1.96324
 Alpha virt. eigenvalues --    1.97529   2.00985   2.05107   2.06779   2.07096
 Alpha virt. eigenvalues --    2.08228   2.08573   2.12204   2.17741   2.18583
 Alpha virt. eigenvalues --    2.20960   2.22190   2.24145   2.25345   2.28519
 Alpha virt. eigenvalues --    2.33616   2.34399   2.36958   2.47009   2.48220
 Alpha virt. eigenvalues --    2.48954   2.49263   2.67862   2.82662   3.01349
 Alpha virt. eigenvalues --    3.10951   3.19394   3.21580   3.23273   3.26901
 Alpha virt. eigenvalues --    3.35572   3.39621   3.42389   3.43235   3.45558
 Alpha virt. eigenvalues --    3.45787   3.50340   3.52922   3.53836   3.56646
 Alpha virt. eigenvalues --    3.59543   3.60588   3.62007   3.63214   3.66448
 Alpha virt. eigenvalues --    3.75302   3.75897   3.76066   3.78409   3.79484
 Alpha virt. eigenvalues --    3.81529   3.84094   3.85928   3.90470   3.92065
 Alpha virt. eigenvalues --    3.93375   3.95162   3.95507   3.99116   4.00625
 Alpha virt. eigenvalues --    4.05124   4.05602   4.08184   4.09487   4.13208
 Alpha virt. eigenvalues --    4.13314   4.21361   4.25779   4.26166   4.31417
 Alpha virt. eigenvalues --    4.32155   4.32806   4.35765   4.39587   4.39931
 Alpha virt. eigenvalues --    4.40505   4.45305   4.49065   4.49715   4.52176
 Alpha virt. eigenvalues --    4.54040   4.59060   4.60734   4.63508   4.65141
 Alpha virt. eigenvalues --    4.65213   4.70831   4.71438   4.73177   4.73938
 Alpha virt. eigenvalues --    4.79061   4.79759   4.86012   4.87000   4.87569
 Alpha virt. eigenvalues --    4.91107   4.94607   4.94826   5.00312   5.01433
 Alpha virt. eigenvalues --    5.04892   5.06588   5.09092   5.09985   5.16437
 Alpha virt. eigenvalues --    5.22046   5.24303   5.31431   5.33016   5.36370
 Alpha virt. eigenvalues --    5.39346   5.41166   5.45334   5.57011   5.61036
 Alpha virt. eigenvalues --    5.61564   5.63780   5.64130   5.74518   5.77715
 Alpha virt. eigenvalues --    5.83476   5.86089   5.93216   5.93323   5.97910
 Alpha virt. eigenvalues --    6.03683   6.07074   6.15139   6.19970   6.20496
 Alpha virt. eigenvalues --    6.28306   6.40316   6.54628   6.59030   6.63474
 Alpha virt. eigenvalues --    6.64762   6.72758   6.95449   6.97887   7.60505
 Alpha virt. eigenvalues --    7.60775  17.55426  18.14321  19.40876
          Condensed to atoms (all electrons):
               1          2          3          4          5          6
     1  N    6.009720  -0.074862   0.326718   0.285149   0.285149   0.019080
     2  C   -0.074862   6.643510  -0.038887  -0.002817  -0.002817   0.114332
     3  H    0.326718  -0.038887   0.681690  -0.050930  -0.050930  -0.002827
     4  H    0.285149  -0.002817  -0.050930   0.657670  -0.046414   0.007140
     5  H    0.285149  -0.002817  -0.050930  -0.046414   0.657670  -0.004361
     6  H    0.019080   0.114332  -0.002827   0.007140  -0.004361   0.552836
     7  H    0.019080   0.114332  -0.002827  -0.004361   0.007140  -0.042465
     8  C   -0.038801  -0.434512   0.014183   0.012195   0.012195  -0.001713
     9  H    0.008083  -0.021756   0.000159  -0.007665   0.001617  -0.008607
    10  H   -0.003762   0.072976  -0.000515   0.000153   0.000153  -0.002775
    11  H    0.008083  -0.021756   0.000159   0.001617  -0.007665   0.012099
               7          8          9         10         11
     1  N    0.019080  -0.038801   0.008083  -0.003762   0.008083
     2  C    0.114332  -0.434512  -0.021756   0.072976  -0.021756
     3  H   -0.002827   0.014183   0.000159  -0.000515   0.000159
     4  H   -0.004361   0.012195  -0.007665   0.000153   0.001617
     5  H    0.007140   0.012195   0.001617   0.000153  -0.007665
     6  H   -0.042465  -0.001713  -0.008607  -0.002775   0.012099
     7  H    0.552836  -0.001713   0.012099  -0.002775  -0.008607
     8  C   -0.001713   6.884148   0.192549   0.131245   0.192549
     9  H    0.012099   0.192549   0.490660  -0.009216   0.014707
    10  H   -0.002775   0.131245  -0.009216   0.459828  -0.009216
    11  H   -0.008607   0.192549   0.014707  -0.009216   0.490660
 Mulliken charges:
               1
     1  N    0.156364
     2  C   -0.347742
     3  H    0.124006
     4  H    0.148264
     5  H    0.148264
     6  H    0.357261
     7  H    0.357261
     8  C   -0.962325
     9  H    0.327370
    10  H    0.363905
    11  H    0.327370
 Sum of Mulliken charges =   1.00000
 Mulliken charges with hydrogens summed into heavy atoms:
               1
     1  N    0.576899
     2  C    0.366781
     8  C    0.056320
 DipInt: DoE/N= T F RetVal/Mat= T F Init=T NMatP=  1 IDeriv=0 Min/MaxMlt=  0  4
 Entering OneElI...
 OneElI was handed  4294625769 working-precision words.
 Multipole integrals L=0 to 4 MinM= 0 MaxM= 0.
 Requested accuracy = 0.1000D-12
 ShPair: Thresh= 1.00D-13 NBox=     0 BxSize= 0.00D+00 RnKept= 7.93D+00
         NSMCal=                 6555 NSMKep=                6550
 PrmmSu-InSpLW:  IPartL=    0 NPrtUS=    1 NPrtUL=    1 DoSpLW=F IThBeg=    0 IThEnd=    0 NThAct=    1.
 PrSmSu:  IncTry=   512 NBBP=           6550 NTPThr=   100 NPartT=    1 Incr=          65 LDynOK=F GPUOK=F.
 PrsmSu:  NPrtUS=   1 ThrOK=F IAlg=2 LenDen=           0 ISkipM=0 DoSpLW=F IThBeg=    0 IThEnd=    0.
 Prism:   IPart=     0 DynPar=F LinDyn=F Incr=          65.
 PRISM was handed  4294213438 working-precision words and  6550 shell-pairs
 IPart=  0 NShTot=        6550 NBatch=          76 AvBLen=        86.2
 PrsmSu-ThDecC:  IPartSL=    0    0 NPrtUSL=    1    1 IThBeg=    0 IThEnd=    0 CPU=   -1 GPU=   -1 NThAct=    1.
 PrSmSu:  NxtVal=             66.
 Electronic moments (au):
        -26.00000000         -1.46050947         -0.37967809          0.00000000
       -132.72156673        -45.78215898        -28.08738318         -6.72244819
          0.00000000         -0.00000000        -60.97642608        -18.45874844
          0.00000000          0.76324687         47.76408579          0.00000000
         -8.94807826          0.53455140          0.00000000         -0.00000000
      -1357.24768321       -241.43496509       -123.91168362        -60.50543397
          0.00000000        -10.80361601          0.00000000          0.00000000
         -0.00000000       -183.96766209       -142.40478675        -83.33089190
         -0.00000000          0.00000000          6.78456247
 Electronic spatial extent (au):  <R**2>=            206.5911
 DipInt: DoE/N= F T RetVal/Mat= T F Init=T NMatP=  1 IDeriv=0 Min/MaxMlt=  0  4
 Nuclear    moments (au):
         27.00000000         -0.00000000          0.00000000          0.00000000
        125.91140101         34.09496834         15.78336664          8.23928149
          0.00000000          0.00000000         38.20839377         15.30710717
          0.00000000         -6.39835011        -49.75589024          0.00000000
          3.31685918         -3.79045055          0.00000000          0.00000000
       1023.25747029        100.13735443         41.74714710         59.18537962
          0.00000000         11.69584714          0.00000000          0.00000000
          0.00000000         98.21973476         62.05020393         56.42866615
          0.00000000          0.00000000         -6.12353677
 Total      moments (au):
          1.00000000         -1.46050947         -0.37967809          0.00000000
         -6.81016572        -11.68719064        -12.30401654          1.51683331
          0.00000000         -0.00000000        -22.76803231         -3.15164128
          0.00000000         -5.63510323         -1.99180446          0.00000000
         -5.63121908         -3.25589915          0.00000000         -0.00000000
       -333.99021292       -141.29761065        -82.16453652         -1.32005436
          0.00000000          0.89223113          0.00000000          0.00000000
         -0.00000000        -85.74792733        -80.35458283        -26.90222574
         -0.00000000          0.00000000          0.66102570
 Traceless Quadrup. (au):
          3.45695858         -1.42006634         -2.03689224          1.51683331
          0.00000000         -0.00000000
 Charge=              1.0000 electrons
 Dipole moment (field-independent basis, Debye):
    X=             -3.7122    Y=             -0.9650    Z=              0.0000  Tot=              3.8356
 Quadrupole moment (field-independent basis, Debye-Ang):
   XX=             -9.1599   YY=            -15.7197   ZZ=            -16.5493
   XY=              2.0402   XZ=              0.0000   YZ=             -0.0000
 Traceless Quadrupole moment (field-independent basis, Debye-Ang):
   XX=              4.6497   YY=             -1.9100   ZZ=             -2.7397
   XY=              2.0402   XZ=              0.0000   YZ=             -0.0000
 Octapole moment (field-independent basis, Debye-Ang**2):
  XXX=            -16.2054  YYY=             -2.2432  ZZZ=              0.0000  XYY=             -4.0108
  XXY=             -1.4177  XXZ=              0.0000  XZZ=             -4.0081  YZZ=             -2.3174
  YYZ=              0.0000  XYZ=             -0.0000
 Hexadecapole moment (field-independent basis, Debye-Ang**3):
 XXXX=           -125.7967 YYYY=            -53.2195 ZZZZ=            -30.9471 XXXY=             -0.4972
 XXXZ=              0.0000 YYYX=              0.3361 YYYZ=              0.0000 ZZZX=              0.0000
 ZZZY=             -0.0000 XXYY=            -32.2968 XXZZ=            -30.2654 YYZZ=            -10.1327
 XXYZ=             -0.0000 YYXZ=              0.0000 ZZXY=              0.2490
 N-N= 9.046101236668D+01 E-N=-4.885023419223D+02  KE= 1.352386444300D+02
 Symmetry A'   KE= 1.281302400684D+02
 Symmetry A"   KE= 7.108404361588D+00
 SetAtRh:  ITypeU=  23 NETotI=      -1 ICharg=  0 NETot=      27.
 StAtR1:  I=    1 I1=    1 IA=  7 C=   7.0 OKShel=TTT
                                                  SSP
                                                  223
 StAtR1:  I=    2 I1=    2 IA=  6 C=   6.0 OKShel=TTT
                                                  SSP
                                                  222
 StAtR1:  I=    3 I1=    3 IA=  1 C=   1.0 OKShel=T
                                                  S
                                                  1
 StAtR1:  I=    4 I1=    4 IA=  1 C=   1.0 OKShel=T
                                                  S
                                                  1
 StAtR1:  I=    5 I1=    5 IA=  1 C=   1.0 OKShel=T
                                                  S
                                                  1
 StAtR1:  I=    6 I1=    6 IA=  1 C=   1.0 OKShel=T
                                                  S
                                                  1
 StAtR1:  I=    7 I1=    7 IA=  1 C=   1.0 OKShel=T
                                                  S
                                                  1
 StAtR1:  I=    8 I1=    8 IA=  6 C=   6.0 OKShel=TTT
                                                  SSP
                                                  222
 StAtR1:  I=    9 I1=    9 IA=  1 C=   1.0 OKShel=T
                                                  S
                                                  1
 StAtR1:  I=   10 I1=   10 IA=  1 C=   1.0 OKShel=T
                                                  S
                                                  1
 StAtR1:  I=   11 I1=   11 IA=  1 C=   1.0 OKShel=T
                                                  S
                                                  1
          I=    1 IA=  7 I1=    1 NAtG=22 NE=   7.000 C=   7.000 Err= 6.08D-13
          I=    2 IA=  6 I1=    2 NAtG=23 NE=   6.000 C=   6.000 Err= 1.75D-11
          I=    3 IA=  1 I1=    3 NAtG=20 NE=   1.000 C=   1.000 Err= 2.80D-12
          I=    4 IA=  1 I1=    4 NAtG=20 NE=   1.000 C=   1.000 Err= 2.80D-12
          I=    5 IA=  1 I1=    5 NAtG=20 NE=   1.000 C=   1.000 Err= 2.80D-12
          I=    6 IA=  1 I1=    6 NAtG=20 NE=   1.000 C=   1.000 Err= 2.80D-12
          I=    7 IA=  1 I1=    7 NAtG=20 NE=   1.000 C=   1.000 Err= 2.80D-12
          I=    8 IA=  6 I1=    8 NAtG=23 NE=   6.000 C=   6.000 Err= 1.75D-11
          I=    9 IA=  1 I1=    9 NAtG=20 NE=   1.000 C=   1.000 Err= 2.80D-12
          I=   10 IA=  1 I1=   10 NAtG=20 NE=   1.000 C=   1.000 Err= 2.80D-12
          I=   11 IA=  1 I1=   11 NAtG=20 NE=   1.000 C=   1.000 Err= 2.80D-12
 Pruned (  99, 590) grid will be used in numerical quadrature.
 IPart=  0 IRanGd=          0 ScrnBf=T ScrnGd=T RCrit=4.00D+00 DoMicB=T.
 CutRad = 1000.00    CtRdIn =    0.00    XCrit =  15.00   ICut = 0
 Pruned (  99, 590) grid will be used in numerical quadrature.
 Pruned (  99, 590) grid will be used in numerical quadrature.
 IPart=  1 IRanGd=          0 ScrnBf=T ScrnGd=T RCrit=4.00D+00 DoMicB=T.
 Pruned (  99, 590) grid will be used in numerical quadrature.
 IPart=  4 IRanGd=          0 ScrnBf=T ScrnGd=T RCrit=4.00D+00 DoMicB=T.
 Pruned (  99, 590) grid will be used in numerical quadrature.
 Pruned (  99, 590) grid will be used in numerical quadrature.
 IPart=  9 IRanGd=          0 ScrnBf=T ScrnGd=T RCrit=4.00D+00 DoMicB=T.
 Pruned (  99, 590) grid will be used in numerical quadrature.
 Pruned (  99, 590) grid will be used in numerical quadrature.
 Pruned (  99, 590) grid will be used in numerical quadrature.
 IPart=  2 IRanGd=          0 ScrnBf=T ScrnGd=T RCrit=4.00D+00 DoMicB=T.
 CutRad = 1000.00    CtRdIn =    0.00    XCrit =  15.00   ICut = 0
 IPart=  3 IRanGd=          0 ScrnBf=T ScrnGd=T RCrit=4.00D+00 DoMicB=T.
 IPart=  0 Atom number   1 atomic number  7 has       23416 grid points.
 Pruned (  99, 590) grid will be used in numerical quadrature.
 CutRad = 1000.00    CtRdIn =    0.00    XCrit =  15.00   ICut = 0
 IPart= 10 IRanGd=          0 ScrnBf=T ScrnGd=T RCrit=4.00D+00 DoMicB=T.
 IPart= 12 IRanGd=          0 ScrnBf=T ScrnGd=T RCrit=4.00D+00 DoMicB=T.
 CutRad = 1000.00    CtRdIn =    0.00    XCrit =  15.00   ICut = 0
 Pruned (  99, 590) grid will be used in numerical quadrature.
 Pruned (  99, 590) grid will be used in numerical quadrature.
 IPart=  6 IRanGd=          0 ScrnBf=T ScrnGd=T RCrit=4.00D+00 DoMicB=T.
 CutRad = 1000.00    CtRdIn =    0.00    XCrit =  15.00   ICut = 0
 Pruned (  99, 590) grid will be used in numerical quadrature.
 CutRad = 1000.00    CtRdIn =    0.00    XCrit =  15.00   ICut = 0
 IPart=  7 IRanGd=          0 ScrnBf=T ScrnGd=T RCrit=4.00D+00 DoMicB=T.
 IPart=  0 Atom   1 batch    1 overlaps   11 atoms,   111 shells and    11 DB shells.   NGrid=      2408
 CutRad = 1000.00    CtRdIn =    0.00    XCrit =  15.00   ICut = 0
 Pruned (  99, 590) grid will be used in numerical quadrature.
 Pruned (  99, 590) grid will be used in numerical quadrature.
 Pruned (  99, 590) grid will be used in numerical quadrature.
 Symmetry reduced    86 angular points to    86 for atom    1.
 IPart= 14 IRanGd=          0 ScrnBf=T ScrnGd=T RCrit=4.00D+00 DoMicB=T.
 IPart= 13 IRanGd=          0 ScrnBf=T ScrnGd=T RCrit=4.00D+00 DoMicB=T.
 CutRad = 1000.00    CtRdIn =    0.00    XCrit =  15.00   ICut = 0
 CutRad = 1000.00    CtRdIn =    0.00    XCrit =  15.00   ICut = 0
 IPart=  5 IRanGd=          0 ScrnBf=T ScrnGd=T RCrit=4.00D+00 DoMicB=T.
 CutRad = 1000.00    CtRdIn =    0.00    XCrit =  15.00   ICut = 0
 CutRad = 1000.00    CtRdIn =    0.00    XCrit =  15.00   ICut = 0
 Pruned (  99, 590) grid will be used in numerical quadrature.
 CutRad = 1000.00    CtRdIn =    0.00    XCrit =  15.00   ICut = 0
 IPart= 15 IRanGd=          0 ScrnBf=T ScrnGd=T RCrit=4.00D+00 DoMicB=T.
 CutRad = 1000.00    CtRdIn =    0.00    XCrit =  15.00   ICut = 0
 IPart= 11 IRanGd=          0 ScrnBf=T ScrnGd=T RCrit=4.00D+00 DoMicB=T.
 CutRad = 1000.00    CtRdIn =    0.00    XCrit =  15.00   ICut = 0
 CutRad = 1000.00    CtRdIn =    0.00    XCrit =  15.00   ICut = 0
 IPart=  8 IRanGd=          0 ScrnBf=T ScrnGd=T RCrit=4.00D+00 DoMicB=T.
 CutRad = 1000.00    CtRdIn =    0.00    XCrit =  15.00   ICut = 0
 Pruned (  99, 590) grid will be used in numerical quadrature.
 IPart=  2 Atom number   1 atomic number  7 has       23416 grid points.
 IPart=  2 Atom   1 batch    2 overlaps   11 atoms,   111 shells and    11 DB shells.   NGrid=      2522
 Symmetry reduced   194 angular points to   194 for atom    1.
 Pruned (  99, 590) grid will be used in numerical quadrature.
 Pruned (  99, 590) grid will be used in numerical quadrature.
 IPart=  9 Atom number   1 atomic number  7 has       23416 grid points.
 IPart= 10 Atom number   1 atomic number  7 has       23416 grid points.
 IPart=  9 Atom   1 batch    3 overlaps   11 atoms,   112 shells and    11 DB shells.   NGrid=      2114
 IPart= 10 Atom   1 batch    4 overlaps   11 atoms,   113 shells and    11 DB shells.   NGrid=      1180
 Pruned (  99, 590) grid will be used in numerical quadrature.
 Symmetry reduced   590 angular points to   590 for atom    1.
 IPart=  6 Atom number   1 atomic number  7 has       23416 grid points.
 Pruned (  99, 590) grid will be used in numerical quadrature.
 Symmetry reduced   302 angular points to   302 for atom    1.
 IPart= 12 Atom number   1 atomic number  7 has       23416 grid points.
 Pruned (  99, 590) grid will be used in numerical quadrature.
 IPart= 12 Atom   1 batch    6 overlaps   11 atoms,   114 shells and    11 DB shells.   NGrid=      1180
 IPart=  4 Atom number   1 atomic number  7 has       23416 grid points.
 IPart=  6 Atom   1 batch    5 overlaps   11 atoms,   114 shells and    11 DB shells.   NGrid=      1180
 IPart=  4 Atom   1 batch    7 overlaps   11 atoms,   114 shells and    11 DB shells.   NGrid=      1180
 Symmetry reduced   590 angular points to   590 for atom    1.
 Symmetry reduced   590 angular points to   590 for atom    1.
 Symmetry reduced   590 angular points to   590 for atom    1.
 Pruned (  99, 590) grid will be used in numerical quadrature.
 IPart= 14 Atom number   1 atomic number  7 has       23416 grid points.
 Pruned (  99, 590) grid will be used in numerical quadrature.
 Pruned (  99, 590) grid will be used in numerical quadrature.
 IPart= 14 Atom   1 batch    8 overlaps   11 atoms,   114 shells and    11 DB shells.   NGrid=      1180
 IPart=  3 Atom number   1 atomic number  7 has       23416 grid points.
 Pruned (  99, 590) grid will be used in numerical quadrature.
 IPart=  1 Atom number   1 atomic number  7 has       23416 grid points.
 Symmetry reduced   590 angular points to   590 for atom    1.
 IPart=  1 Atom   1 batch    9 overlaps   11 atoms,   114 shells and    11 DB shells.   NGrid=      1180
 Pruned (  99, 590) grid will be used in numerical quadrature.
 Symmetry reduced   590 angular points to   590 for atom    1.
 IPart= 11 Atom number   1 atomic number  7 has       23416 grid points.
 Pruned (  99, 590) grid will be used in numerical quadrature.
 IPart=  3 Atom   1 batch   10 overlaps   11 atoms,   114 shells and    11 DB shells.   NGrid=      1180
 IPart= 13 Atom number   1 atomic number  7 has       23416 grid points.
 Pruned (  99, 590) grid will be used in numerical quadrature.
 IPart= 13 Atom   1 batch   14 overlaps   11 atoms,   113 shells and    11 DB shells.   NGrid=       604
 IPart=  8 Atom number   1 atomic number  7 has       23416 grid points.
 Pruned (  99, 590) grid will be used in numerical quadrature.
 IPart=  8 Atom   1 batch   15 overlaps   11 atoms,   111 shells and    11 DB shells.   NGrid=       604
 IPart= 15 Atom number   1 atomic number  7 has       23416 grid points.
 Symmetry reduced   590 angular points to   590 for atom    1.
 IPart= 11 Atom   1 batch   13 overlaps   11 atoms,   113 shells and    11 DB shells.   NGrid=       604
 IPart= 15 Atom   1 batch   12 overlaps   11 atoms,   113 shells and    11 DB shells.   NGrid=       590
 Symmetry reduced   302 angular points to   302 for atom    1.
 Symmetry reduced   590 angular points to   590 for atom    1.
 Symmetry reduced   302 angular points to   302 for atom    1.
 IPart=  5 Atom number   1 atomic number  7 has       23416 grid points.
 Symmetry reduced   302 angular points to   302 for atom    1.
 IPart=  5 Atom   1 batch   11 overlaps   11 atoms,   114 shells and    11 DB shells.   NGrid=      1180
 Symmetry reduced   590 angular points to   590 for atom    1.
 Pruned (  99, 590) grid will be used in numerical quadrature.
 IPart=  7 Atom number   1 atomic number  7 has       23416 grid points.
 IPart=  7 Atom   1 batch   16 overlaps   11 atoms,   108 shells and    11 DB shells.   NGrid=       604
 Symmetry reduced   302 angular points to   302 for atom    1.
 IPart=  7 Atom   1 batch   17 overlaps   11 atoms,   101 shells and    11 DB shells.   NGrid=       604
 IPart=  8 Atom   1 batch   18 overlaps   11 atoms,    88 shells and    11 DB shells.   NGrid=       604
 IPart= 13 Atom   1 batch   19 overlaps   11 atoms,    66 shells and    11 DB shells.   NGrid=       604
 IPart= 11 Atom   1 batch   20 overlaps   11 atoms,    44 shells and    10 DB shells.   NGrid=       604
 IPart= 15 Atom   1 batch   21 overlaps   11 atoms,    27 shells and     6 DB shells.   NGrid=       604
 Symmetry reduced   302 angular points to   302 for atom    1.
 IPart= 13 Atom   1 batch   22 overlaps   11 atoms,    12 shells and     0 DB shells.   NGrid=       604
 IPart=  8 Atom   1 batch   23 overlaps   11 atoms,     5 shells and     0 DB shells.   NGrid=       302
 Pruned (  99, 590) grid will be used in numerical quadrature.
 IPart= 11 Atom number   2 atomic number  6 has       23114 grid points.
 IPart= 11 Atom   2 batch    1 overlaps   11 atoms,   114 shells and    11 DB shells.   NGrid=      2408
 Symmetry reduced    86 angular points to    86 for atom    2.
 Pruned (  99, 590) grid will be used in numerical quadrature.
 IPart=  8 Atom number   2 atomic number  6 has       23114 grid points.
 IPart=  8 Atom   2 batch    2 overlaps   11 atoms,   114 shells and    11 DB shells.   NGrid=      2522
 Pruned (  99, 590) grid will be used in numerical quadrature.
 Symmetry reduced   194 angular points to   194 for atom    2.
 IPart= 15 Atom number   2 atomic number  6 has       23114 grid points.
 IPart= 15 Atom   2 batch    3 overlaps   11 atoms,   114 shells and    11 DB shells.   NGrid=      2114
 Symmetry reduced   302 angular points to   302 for atom    2.
 Pruned (  99, 590) grid will be used in numerical quadrature.
 IPart= 13 Atom number   2 atomic number  6 has       23114 grid points.
 IPart= 13 Atom   2 batch    4 overlaps   11 atoms,   114 shells and    11 DB shells.   NGrid=      1180
 Symmetry reduced   590 angular points to   590 for atom    2.
 Pruned (  99, 590) grid will be used in numerical quadrature.
 IPart=  7 Atom number   2 atomic number  6 has       23114 grid points.
 IPart=  7 Atom   2 batch    5 overlaps   11 atoms,   114 shells and    11 DB shells.   NGrid=      1180
 Symmetry reduced   590 angular points to   590 for atom    2.
 Pruned (  99, 590) grid will be used in numerical quadrature.
 IPart=  5 Atom number   2 atomic number  6 has       23114 grid points.
 IPart=  5 Atom   2 batch    6 overlaps   11 atoms,   114 shells and    11 DB shells.   NGrid=      1180
 Symmetry reduced   590 angular points to   590 for atom    2.
 Pruned (  99, 590) grid will be used in numerical quadrature.
 Pruned (  99, 590) grid will be used in numerical quadrature.
 IPart= 10 Atom number   2 atomic number  6 has       23114 grid points.
 IPart=  3 Atom number   2 atomic number  6 has       23114 grid points.
 IPart= 10 Atom   2 batch    7 overlaps   11 atoms,   114 shells and    11 DB shells.   NGrid=      1180
 IPart=  3 Atom   2 batch    8 overlaps   11 atoms,   114 shells and    11 DB shells.   NGrid=      1180
 Symmetry reduced   590 angular points to   590 for atom    2.
 Symmetry reduced   590 angular points to   590 for atom    2.
 Pruned (  99, 590) grid will be used in numerical quadrature.
 IPart= 12 Atom number   2 atomic number  6 has       23114 grid points.
 IPart= 12 Atom   2 batch    9 overlaps   11 atoms,   114 shells and    11 DB shells.   NGrid=      1180
 Symmetry reduced   590 angular points to   590 for atom    2.
 Pruned (  99, 590) grid will be used in numerical quadrature.
 IPart=  1 Atom number   2 atomic number  6 has       23114 grid points.
 IPart=  1 Atom   2 batch   10 overlaps   11 atoms,   114 shells and    11 DB shells.   NGrid=      1180
 Symmetry reduced   590 angular points to   590 for atom    2.
 Pruned (  99, 590) grid will be used in numerical quadrature.
 Pruned (  99, 590) grid will be used in numerical quadrature.
 IPart= 14 Atom number   2 atomic number  6 has       23114 grid points.
 IPart=  4 Atom number   2 atomic number  6 has       23114 grid points.
 IPart= 14 Atom   2 batch   11 overlaps   11 atoms,   113 shells and    11 DB shells.   NGrid=      1180
 IPart=  4 Atom   2 batch   12 overlaps   11 atoms,   113 shells and    11 DB shells.   NGrid=       590
 Symmetry reduced   590 angular points to   590 for atom    2.
 Symmetry reduced   590 angular points to   590 for atom    2.
 Pruned (  99, 590) grid will be used in numerical quadrature.
 IPart=  6 Atom number   2 atomic number  6 has       23114 grid points.
 IPart=  6 Atom   2 batch   13 overlaps   11 atoms,   113 shells and    11 DB shells.   NGrid=       604
 Symmetry reduced   302 angular points to   302 for atom    2.
 IPart=  4 Atom   2 batch   14 overlaps   11 atoms,   113 shells and    11 DB shells.   NGrid=       604
 IPart=  6 Atom   2 batch   15 overlaps   11 atoms,   108 shells and    11 DB shells.   NGrid=       604
 Symmetry reduced   302 angular points to   302 for atom    2.
 IPart= 13 Atom   2 batch   16 overlaps   11 atoms,   101 shells and    11 DB shells.   NGrid=       604
 Symmetry reduced   302 angular points to   302 for atom    2.
 IPart=  7 Atom   2 batch   17 overlaps   11 atoms,    82 shells and    11 DB shells.   NGrid=       604
 Symmetry reduced   302 angular points to   302 for atom    2.
 Pruned (  99, 590) grid will be used in numerical quadrature.
 IPart=  9 Atom number   2 atomic number  6 has       23114 grid points.
 IPart=  9 Atom   2 batch   18 overlaps   11 atoms,    68 shells and    11 DB shells.   NGrid=       604
 Symmetry reduced   302 angular points to   302 for atom    2.
 IPart=  7 Atom   2 batch   19 overlaps   11 atoms,    46 shells and    11 DB shells.   NGrid=       604
 Pruned (  99, 590) grid will be used in numerical quadrature.
 IPart=  0 Atom number   2 atomic number  6 has       23114 grid points.
 IPart=  0 Atom   2 batch   20 overlaps   11 atoms,    33 shells and     7 DB shells.   NGrid=       604
 Symmetry reduced   302 angular points to   302 for atom    2.
 IPart=  0 Atom   2 batch   21 overlaps   11 atoms,    14 shells and     0 DB shells.   NGrid=       604
 IPart=  7 Atom   2 batch   22 overlaps   11 atoms,     8 shells and     0 DB shells.   NGrid=       604
 Pruned (  99, 590) grid will be used in numerical quadrature.
 IPart=  6 Atom number   3 atomic number  1 has       23466 grid points.
 IPart=  6 Atom   3 batch    1 overlaps   11 atoms,   102 shells and    11 DB shells.   NGrid=      2838
 Symmetry reduced    86 angular points to    86 for atom    3.
 Pruned (  99, 590) grid will be used in numerical quadrature.
 IPart=  7 Atom number   3 atomic number  1 has       23466 grid points.
 IPart=  7 Atom   3 batch    2 overlaps   11 atoms,   104 shells and    11 DB shells.   NGrid=      1552
 Symmetry reduced   194 angular points to   194 for atom    3.
 Pruned (  99, 590) grid will be used in numerical quadrature.
 IPart=  0 Atom number   3 atomic number  1 has       23466 grid points.
 IPart=  0 Atom   3 batch    3 overlaps   11 atoms,   106 shells and    11 DB shells.   NGrid=      2416
 Symmetry reduced   302 angular points to   302 for atom    3.
 Pruned (  99, 590) grid will be used in numerical quadrature.
 Pruned (  99, 590) grid will be used in numerical quadrature.
 IPart=  9 Atom number   3 atomic number  1 has       23466 grid points.
 IPart= 13 Atom number   3 atomic number  1 has       23466 grid points.
 IPart=  9 Atom   3 batch    4 overlaps   11 atoms,   106 shells and    11 DB shells.   NGrid=      1180
 IPart= 13 Atom   3 batch    5 overlaps   11 atoms,   108 shells and    11 DB shells.   NGrid=      1180
 Symmetry reduced   590 angular points to   590 for atom    3.
 Symmetry reduced   590 angular points to   590 for atom    3.
 Pruned (  99, 590) grid will be used in numerical quadrature.
 IPart= 14 Atom number   3 atomic number  1 has       23466 grid points.
 IPart= 14 Atom   3 batch    6 overlaps   11 atoms,   111 shells and    11 DB shells.   NGrid=      1180
 Symmetry reduced   590 angular points to   590 for atom    3.
 Pruned (  99, 590) grid will be used in numerical quadrature.
 IPart=  4 Atom number   3 atomic number  1 has       23466 grid points.
 IPart=  4 Atom   3 batch    7 overlaps   11 atoms,   111 shells and    11 DB shells.   NGrid=      1180
 Symmetry reduced   590 angular points to   590 for atom    3.
 Pruned (  99, 590) grid will be used in numerical quadrature.
 Pruned (  99, 590) grid will be used in numerical quadrature.
 IPart=  1 Atom number   3 atomic number  1 has       23466 grid points.
 IPart=  5 Atom number   3 atomic number  1 has       23466 grid points.
 IPart=  1 Atom   3 batch    8 overlaps   11 atoms,   111 shells and    11 DB shells.   NGrid=      1180
 IPart=  5 Atom   3 batch    9 overlaps   11 atoms,   113 shells and    11 DB shells.   NGrid=      1180
 Symmetry reduced   590 angular points to   590 for atom    3.
 Symmetry reduced   590 angular points to   590 for atom    3.
 Pruned (  99, 590) grid will be used in numerical quadrature.
 IPart=  2 Atom number   2 atomic number  6 has       23114 grid points.
 Pruned (  99, 590) grid will be used in numerical quadrature.
 IPart=  2 Atom number   3 atomic number  1 has       23466 grid points.
 IPart=  2 Atom   3 batch   10 overlaps   11 atoms,   114 shells and    11 DB shells.   NGrid=      1180
 Symmetry reduced   590 angular points to   590 for atom    3.
 Pruned (  99, 590) grid will be used in numerical quadrature.
 IPart=  3 Atom number   3 atomic number  1 has       23466 grid points.
 IPart=  3 Atom   3 batch   11 overlaps   11 atoms,   114 shells and    11 DB shells.   NGrid=      1180
 Symmetry reduced   590 angular points to   590 for atom    3.
 Pruned (  99, 590) grid will be used in numerical quadrature.
 IPart= 12 Atom number   3 atomic number  1 has       23466 grid points.
 IPart= 12 Atom   3 batch   12 overlaps   11 atoms,   114 shells and    11 DB shells.   NGrid=      1180
 Symmetry reduced   590 angular points to   590 for atom    3.
 Pruned (  99, 590) grid will be used in numerical quadrature.
 IPart= 10 Atom number   3 atomic number  1 has       23466 grid points.
 IPart= 10 Atom   3 batch   13 overlaps   11 atoms,   114 shells and    11 DB shells.   NGrid=       604
 Symmetry reduced   302 angular points to   302 for atom    3.
 Pruned (  99, 590) grid will be used in numerical quadrature.
 IPart= 15 Atom number   3 atomic number  1 has       23466 grid points.
 IPart= 15 Atom   3 batch   14 overlaps   11 atoms,   113 shells and    11 DB shells.   NGrid=       604
 Symmetry reduced   302 angular points to   302 for atom    3.
 IPart= 10 Atom   3 batch   15 overlaps   11 atoms,   110 shells and    11 DB shells.   NGrid=       604
 Pruned (  99, 590) grid will be used in numerical quadrature.
 IPart= 11 Atom number   3 atomic number  1 has       23466 grid points.
 IPart= 11 Atom   3 batch   16 overlaps   11 atoms,   106 shells and    11 DB shells.   NGrid=       604
 Symmetry reduced   302 angular points to   302 for atom    3.
 IPart=  9 Atom   3 batch   17 overlaps   11 atoms,    95 shells and    11 DB shells.   NGrid=       604
 Symmetry reduced   302 angular points to   302 for atom    3.
 IPart= 13 Atom   3 batch   18 overlaps   11 atoms,    80 shells and    11 DB shells.   NGrid=       604
 Symmetry reduced   302 angular points to   302 for atom    3.
 Pruned (  99, 590) grid will be used in numerical quadrature.
 IPart=  8 Atom number   3 atomic number  1 has       23466 grid points.
 IPart=  8 Atom   3 batch   19 overlaps   11 atoms,    54 shells and    10 DB shells.   NGrid=       604
 Symmetry reduced   302 angular points to   302 for atom    3.
 IPart= 14 Atom   3 batch   20 overlaps   11 atoms,    34 shells and     7 DB shells.   NGrid=       604
 Symmetry reduced   302 angular points to   302 for atom    3.
 IPart= 15 Atom   3 batch   21 overlaps   11 atoms,    13 shells and     0 DB shells.   NGrid=       604
 IPart=  8 Atom   3 batch   22 overlaps   11 atoms,     7 shells and     0 DB shells.   NGrid=       604
 Pruned (  99, 590) grid will be used in numerical quadrature.
 Pruned (  99, 590) grid will be used in numerical quadrature.
 IPart= 10 Atom number   4 atomic number  1 has       23466 grid points.
 IPart= 14 Atom number   4 atomic number  1 has       23466 grid points.
 IPart= 10 Atom   4 batch    1 overlaps   11 atoms,   108 shells and    11 DB shells.   NGrid=      2838
 IPart= 14 Atom   4 batch    2 overlaps   11 atoms,   110 shells and    11 DB shells.   NGrid=      1552
 Symmetry reduced    86 angular points to    86 for atom    4.
 Symmetry reduced   194 angular points to   194 for atom    4.
 Pruned (  99, 590) grid will be used in numerical quadrature.
 IPart=  4 Atom number   4 atomic number  1 has       23466 grid points.
 IPart=  4 Atom   4 batch    3 overlaps   11 atoms,   111 shells and    11 DB shells.   NGrid=      2416
 Symmetry reduced   302 angular points to   302 for atom    4.
 Pruned (  99, 590) grid will be used in numerical quadrature.
 IPart= 13 Atom number   4 atomic number  1 has       23466 grid points.
 IPart= 13 Atom   4 batch    4 overlaps   11 atoms,   111 shells and    11 DB shells.   NGrid=      1180
 Symmetry reduced   590 angular points to   590 for atom    4.
 Pruned (  99, 590) grid will be used in numerical quadrature.
 IPart= 15 Atom number   4 atomic number  1 has       23466 grid points.
 IPart= 15 Atom   4 batch    5 overlaps   11 atoms,   112 shells and    11 DB shells.   NGrid=      1180
 Symmetry reduced   590 angular points to   590 for atom    4.
 Pruned (  99, 590) grid will be used in numerical quadrature.
 IPart=  8 Atom number   4 atomic number  1 has       23466 grid points.
 IPart=  8 Atom   4 batch    6 overlaps   11 atoms,   113 shells and    11 DB shells.   NGrid=      1180
 Symmetry reduced   590 angular points to   590 for atom    4.
 Pruned (  99, 590) grid will be used in numerical quadrature.
 IPart= 11 Atom number   4 atomic number  1 has       23466 grid points.
 IPart= 11 Atom   4 batch    7 overlaps   11 atoms,   114 shells and    11 DB shells.   NGrid=      1180
 Symmetry reduced   590 angular points to   590 for atom    4.
 Pruned (  99, 590) grid will be used in numerical quadrature.
 IPart=  7 Atom number   4 atomic number  1 has       23466 grid points.
 IPart=  7 Atom   4 batch    8 overlaps   11 atoms,   114 shells and    11 DB shells.   NGrid=      1180
 Symmetry reduced   590 angular points to   590 for atom    4.
 Pruned (  99, 590) grid will be used in numerical quadrature.
 IPart=  9 Atom number   4 atomic number  1 has       23466 grid points.
 IPart=  9 Atom   4 batch    9 overlaps   11 atoms,   114 shells and    11 DB shells.   NGrid=      1180
 Symmetry reduced   590 angular points to   590 for atom    4.
 Pruned (  99, 590) grid will be used in numerical quadrature.
 IPart= 12 Atom number   4 atomic number  1 has       23466 grid points.
 IPart= 12 Atom   4 batch   10 overlaps   11 atoms,   114 shells and    11 DB shells.   NGrid=      1180
 Pruned (  99, 590) grid will be used in numerical quadrature.
 Symmetry reduced   590 angular points to   590 for atom    4.
 IPart=  5 Atom number   4 atomic number  1 has       23466 grid points.
 IPart=  5 Atom   4 batch   11 overlaps   11 atoms,   114 shells and    11 DB shells.   NGrid=      1180
 Symmetry reduced   590 angular points to   590 for atom    4.
 Pruned (  99, 590) grid will be used in numerical quadrature.
 IPart=  3 Atom number   4 atomic number  1 has       23466 grid points.
 IPart=  3 Atom   4 batch   12 overlaps   11 atoms,   114 shells and    11 DB shells.   NGrid=      1180
 Symmetry reduced   590 angular points to   590 for atom    4.
 Pruned (  99, 590) grid will be used in numerical quadrature.
 IPart=  2 Atom number   4 atomic number  1 has       23466 grid points.
 Pruned (  99, 590) grid will be used in numerical quadrature.
 IPart=  2 Atom   4 batch   13 overlaps   11 atoms,   114 shells and    11 DB shells.   NGrid=       604
 IPart=  1 Atom number   4 atomic number  1 has       23466 grid points.
 Symmetry reduced   302 angular points to   302 for atom    4.
 IPart=  1 Atom   4 batch   14 overlaps   11 atoms,   113 shells and    11 DB shells.   NGrid=       604
 Symmetry reduced   302 angular points to   302 for atom    4.
 IPart=  1 Atom   4 batch   15 overlaps   11 atoms,   110 shells and    11 DB shells.   NGrid=       604
 IPart=  2 Atom   4 batch   16 overlaps   11 atoms,   106 shells and    11 DB shells.   NGrid=       604
 Pruned (  99, 590) grid will be used in numerical quadrature.
 IPart=  0 Atom number   4 atomic number  1 has       23466 grid points.
 IPart=  0 Atom   4 batch   17 overlaps   11 atoms,    97 shells and    11 DB shells.   NGrid=       604
 Symmetry reduced   302 angular points to   302 for atom    4.
 Pruned (  99, 590) grid will be used in numerical quadrature.
 IPart=  6 Atom number   4 atomic number  1 has       23466 grid points.
 IPart=  6 Atom   4 batch   18 overlaps   11 atoms,    73 shells and    11 DB shells.   NGrid=       604
 Symmetry reduced   302 angular points to   302 for atom    4.
 IPart=  1 Atom   4 batch   19 overlaps   11 atoms,    50 shells and    10 DB shells.   NGrid=       604
 IPart=  2 Atom   4 batch   20 overlaps   11 atoms,    33 shells and     7 DB shells.   NGrid=       604
 IPart=  2 Atom   4 batch   21 overlaps   11 atoms,    13 shells and     0 DB shells.   NGrid=       604
 IPart=  1 Atom   4 batch   22 overlaps   11 atoms,     7 shells and     0 DB shells.   NGrid=       604
 Pruned (  99, 590) grid will be used in numerical quadrature.
 IPart=  0 Atom number   5 atomic number  1 has       23466 grid points.
 IPart=  0 Atom   5 batch    1 overlaps   11 atoms,   108 shells and    11 DB shells.   NGrid=      2838
 Symmetry reduced    86 angular points to    86 for atom    5.
 Pruned (  99, 590) grid will be used in numerical quadrature.
 IPart=  6 Atom number   5 atomic number  1 has       23466 grid points.
 IPart=  6 Atom   5 batch    2 overlaps   11 atoms,   110 shells and    11 DB shells.   NGrid=      1552
 Symmetry reduced   194 angular points to   194 for atom    5.
 Pruned (  99, 590) grid will be used in numerical quadrature.
 IPart=  2 Atom number   5 atomic number  1 has       23466 grid points.
 IPart=  2 Atom   5 batch    3 overlaps   11 atoms,   111 shells and    11 DB shells.   NGrid=      2416
 Symmetry reduced   302 angular points to   302 for atom    5.
 Pruned (  99, 590) grid will be used in numerical quadrature.
 IPart=  1 Atom number   5 atomic number  1 has       23466 grid points.
 IPart=  1 Atom   5 batch    4 overlaps   11 atoms,   111 shells and    11 DB shells.   NGrid=      1180
 Symmetry reduced   590 angular points to   590 for atom    5.
 Pruned (  99, 590) grid will be used in numerical quadrature.
 IPart=  3 Atom number   5 atomic number  1 has       23466 grid points.
 IPart=  3 Atom   5 batch    5 overlaps   11 atoms,   112 shells and    11 DB shells.   NGrid=      1180
 Symmetry reduced   590 angular points to   590 for atom    5.
 Pruned (  99, 590) grid will be used in numerical quadrature.
 IPart= 13 Atom number   5 atomic number  1 has       23466 grid points.
 IPart= 13 Atom   5 batch    6 overlaps   11 atoms,   113 shells and    11 DB shells.   NGrid=      1180
 Symmetry reduced   590 angular points to   590 for atom    5.
 Pruned (  99, 590) grid will be used in numerical quadrature.
 IPart=  5 Atom number   5 atomic number  1 has       23466 grid points.
 IPart=  5 Atom   5 batch    7 overlaps   11 atoms,   114 shells and    11 DB shells.   NGrid=      1180
 Symmetry reduced   590 angular points to   590 for atom    5.
 Pruned (  99, 590) grid will be used in numerical quadrature.
 IPart= 15 Atom number   5 atomic number  1 has       23466 grid points.
 IPart= 15 Atom   5 batch    8 overlaps   11 atoms,   114 shells and    11 DB shells.   NGrid=      1180
 Symmetry reduced   590 angular points to   590 for atom    5.
[...]
 2782 Fit       0.159892
 2783 Fit       0.159531
 2784 Fit       0.159649
 2785 Fit       0.160235
 2786 Fit       0.161317
 2787 Fit       0.162973
 2788 Fit       0.161461
 2789 Fit       0.159179
 2790 Fit       0.157618
 2791 Fit       0.156658
 2792 Fit       0.156222
 2793 Fit       0.156269
 2794 Fit       0.156793
 2795 Fit       0.157834
 2796 Fit       0.159497
 2797 Fit       0.160506
 2798 Fit       0.157864
 2799 Fit       0.155979
 2800 Fit       0.154739
 2801 Fit       0.154059
 2802 Fit       0.153892
 2803 Fit       0.154223
 2804 Fit       0.155083
 2805 Fit       0.156565
 2806 Fit       0.158885
 2807 Fit       0.160319
 2808 Fit       0.157436
 2809 Fit       0.155273
 2810 Fit       0.153759
 2811 Fit       0.152827
 2812 Fit       0.152425
 2813 Fit       0.152533
 2814 Fit       0.153165
 2815 Fit       0.154389
 2816 Fit       0.156353
 2817 Fit       0.160379
 2818 Fit       0.157314
 2819 Fit       0.154919
 2820 Fit       0.153198
 2821 Fit       0.152115
 2822 Fit       0.151632
 2823 Fit       0.151732
 2824 Fit       0.152438
 2825 Fit       0.153823
 2826 Fit       0.156032
 2827 Fit       0.164166
 2828 Fit       0.160877
 2829 Fit       0.157816
 2830 Fit       0.155248
 2831 Fit       0.153309
 2832 Fit       0.152042
 2833 Fit       0.151443
 2834 Fit       0.151511
 2835 Fit       0.152268
 2836 Fit       0.153772
 2837 Fit       0.156101
 2838 Fit       0.161984
 2839 Fit       0.164590
 2840 Fit       0.166816
 2841 Fit       0.163080
 2842 Fit       0.160240
 2843 Fit       0.157391
 2844 Fit       0.154910
 2845 Fit       0.153066
 2846 Fit       0.151997
 2847 Fit       0.151753
 2848 Fit       0.152362
 2849 Fit       0.153843
 2850 Fit       0.156154
 2851 Fit       0.159042
 2852 Fit       0.159176
 2853 Fit       0.161610
 2854 Fit       0.163079
 2855 Fit       0.163017
 2856 Fit       0.161477
 2857 Fit       0.159014
 2858 Fit       0.156299
 2859 Fit       0.154049
 2860 Fit       0.152797
 2861 Fit       0.152796
 2862 Fit       0.154078
 2863 Fit       0.156413
 2864 Fit       0.157340
 2865 Fit       0.159178
 2866 Fit       0.158444
 2867 Fit       0.155943
 2868 Fit       0.154202
 2869 Fit       0.154866
 2870 Fit       0.156287
 2871 Fit       0.139222
 2872 Fit       0.137199
 2873 Fit       0.134492
 2874 Fit       0.136600
 2875 Fit       0.142084
 2876 Fit       0.145549
 2877 Fit       0.142685
 2878 Fit       0.135989
 2879 Fit       0.132484
 2880 Fit       0.131006
 2881 Fit       0.131736
 2882 Fit       0.134712
 2883 Fit       0.139696
 2884 Fit       0.145847
 2885 Fit       0.151416
 2886 Fit       0.154011
 2887 Fit       0.152198
 2888 Fit       0.147129
 2889 Fit       0.141157
 2890 Fit       0.135598
 2891 Fit       0.132000
 2892 Fit       0.129631
 2893 Fit       0.128535
 2894 Fit       0.128770
 2895 Fit       0.130399
 2896 Fit       0.133480
 2897 Fit       0.138020
 2898 Fit       0.143878
 2899 Fit       0.150620
 2900 Fit       0.157404
 2901 Fit       0.162915
 2902 Fit       0.165472
 2903 Fit       0.163957
 2904 Fit       0.159099
 2905 Fit       0.152747
 2906 Fit       0.146257
 2907 Fit       0.140395
 2908 Fit       0.136067
 2909 Fit       0.132338
 2910 Fit       0.129552
 2911 Fit       0.127713
 2912 Fit       0.126854
 2913 Fit       0.127013
 2914 Fit       0.128238
 2915 Fit       0.130601
 2916 Fit       0.134187
 2917 Fit       0.139072
 2918 Fit       0.145260
 2919 Fit       0.152594
 2920 Fit       0.160677
 2921 Fit       0.133564
 2922 Fit       0.130406
 2923 Fit       0.128046
 2924 Fit       0.126530
 2925 Fit       0.125885
 2926 Fit       0.126133
 2927 Fit       0.127316
 2928 Fit       0.129502
 2929 Fit       0.132798
 2930 Fit       0.137331
 2931 Fit       0.143230
 2932 Fit       0.150561
 2933 Fit       0.159242
 2934 Fit       0.132444
 2935 Fit       0.129562
 2936 Fit       0.127454
 2937 Fit       0.126145
 2938 Fit       0.125631
 2939 Fit       0.125919
 2940 Fit       0.127038
 2941 Fit       0.129054
 2942 Fit       0.132069
 2943 Fit       0.136228
 2944 Fit       0.141710
 2945 Fit       0.148706
 2946 Fit       0.157360
 2947 Fit       0.131799
 2948 Fit       0.129069
 2949 Fit       0.127240
 2950 Fit       0.126263
 2951 Fit       0.126110
 2952 Fit       0.126784
 2953 Fit       0.128327
 2954 Fit       0.130832
 2955 Fit       0.134441
 2956 Fit       0.139362
 2957 Fit       0.145865
 2958 Fit       0.154277
 2959 Fit       0.164930
 2960 Fit       0.131794
 2961 Fit       0.129360
 2962 Fit       0.127882
 2963 Fit       0.127270
 2964 Fit       0.127490
 2965 Fit       0.128555
 2966 Fit       0.130531
 2967 Fit       0.133541
 2968 Fit       0.137777
 2969 Fit       0.143515
 2970 Fit       0.151146
 2971 Fit       0.161197
 2972 Fit       0.130341
 2973 Fit       0.129392
 2974 Fit       0.129330
 2975 Fit       0.130146
 2976 Fit       0.131893
 2977 Fit       0.134687
 2978 Fit       0.138723
 2979 Fit       0.144297
 2980 Fit       0.151857
 2981 Fit       0.132385
 2982 Fit       0.133435
 2983 Fit       0.135581
 2984 Fit       0.138990
 2985 Fit       0.132385
 2986 Fit       0.133435
 2987 Fit       0.135581
 2988 Fit       0.138990
 2989 Fit       0.130341
 2990 Fit       0.129392
 2991 Fit       0.129330
 2992 Fit       0.130146
 2993 Fit       0.131893
 2994 Fit       0.134687
 2995 Fit       0.138723
 2996 Fit       0.144297
 2997 Fit       0.151857
 2998 Fit       0.131794
 2999 Fit       0.129360
 3000 Fit       0.127882
 3001 Fit       0.127270
 3002 Fit       0.127490
 3003 Fit       0.128555
 3004 Fit       0.130531
 3005 Fit       0.133541
 3006 Fit       0.137777
 3007 Fit       0.143515
 3008 Fit       0.151146
 3009 Fit       0.161197
 3010 Fit       0.131799
 3011 Fit       0.129069
 3012 Fit       0.127240
 3013 Fit       0.126263
 3014 Fit       0.126110
 3015 Fit       0.126784
 3016 Fit       0.128327
 3017 Fit       0.130832
 3018 Fit       0.134441
 3019 Fit       0.139362
 3020 Fit       0.145865
 3021 Fit       0.154277
 3022 Fit       0.164930
 3023 Fit       0.132444
 3024 Fit       0.129562
 3025 Fit       0.127454
 3026 Fit       0.126145
 3027 Fit       0.125631
 3028 Fit       0.125919
 3029 Fit       0.127038
 3030 Fit       0.129054
 3031 Fit       0.132069
 3032 Fit       0.136228
 3033 Fit       0.141710
 3034 Fit       0.148706
 3035 Fit       0.157360
 3036 Fit       0.133564
 3037 Fit       0.130406
 3038 Fit       0.128046
 3039 Fit       0.126530
 3040 Fit       0.125885
 3041 Fit       0.126133
 3042 Fit       0.127316
 3043 Fit       0.129502
 3044 Fit       0.132798
 3045 Fit       0.137331
 3046 Fit       0.143230
 3047 Fit       0.150561
 3048 Fit       0.159242
 3049 Fit       0.136067
 3050 Fit       0.132338
 3051 Fit       0.129552
 3052 Fit       0.127713
 3053 Fit       0.126854
 3054 Fit       0.127013
 3055 Fit       0.128238
 3056 Fit       0.130601
 3057 Fit       0.134187
 3058 Fit       0.139072
 3059 Fit       0.145260
 3060 Fit       0.152594
 3061 Fit       0.160677
 3062 Fit       0.135598
 3063 Fit       0.132000
 3064 Fit       0.129631
 3065 Fit       0.128535
 3066 Fit       0.128770
 3067 Fit       0.130399
 3068 Fit       0.133480
 3069 Fit       0.138020
 3070 Fit       0.143878
 3071 Fit       0.150620
 3072 Fit       0.157404
 3073 Fit       0.162915
 3074 Fit       0.165472
 3075 Fit       0.163957
 3076 Fit       0.159099
 3077 Fit       0.152747
 3078 Fit       0.146257
 3079 Fit       0.140395
 3080 Fit       0.135989
 3081 Fit       0.132484
 3082 Fit       0.131006
 3083 Fit       0.131736
 3084 Fit       0.134712
 3085 Fit       0.139696
 3086 Fit       0.145847
 3087 Fit       0.151416
 3088 Fit       0.154011
 3089 Fit       0.152198
 3090 Fit       0.147129
 3091 Fit       0.141157
 3092 Fit       0.137199
 3093 Fit       0.134492
 3094 Fit       0.136600
 3095 Fit       0.142084
 3096 Fit       0.145549
 3097 Fit       0.142685
 3098 Fit       0.139222
 3099 Fit       0.132261
 3100 Fit       0.138727
 3101 Fit       0.125688
 3102 Fit       0.129762
 3103 Fit       0.135744
 3104 Fit       0.119760
 3105 Fit       0.121378
 3106 Fit       0.124346
 3107 Fit       0.128761
 3108 Fit       0.134854
 3109 Fit       0.116841
 3110 Fit       0.118133
 3111 Fit       0.120299
 3112 Fit       0.123346
 3113 Fit       0.127438
 3114 Fit       0.132887
 3115 Fit       0.114179
 3116 Fit       0.114759
 3117 Fit       0.128250
 3118 Fit       0.112500
 3119 Fit       0.112420
 3120 Fit       0.111389
 3121 Fit       0.112406
 3122 Fit       0.111300
 3123 Fit       0.110958
 3124 Fit       0.112088
 3125 Fit       0.110720
 3126 Fit       0.110013
 3127 Fit       0.110009
 3128 Fit       0.114661
 3129 Fit       0.112435
 3130 Fit       0.110773
 3131 Fit       0.109695
 3132 Fit       0.109243
 3133 Fit       0.109462
 3134 Fit       0.154685
 3135 Fit       0.144144
 3136 Fit       0.135950
 3137 Fit       0.129495
 3138 Fit       0.124336
 3139 Fit       0.120163
 3140 Fit       0.116766
 3141 Fit       0.114018
 3142 Fit       0.111857
 3143 Fit       0.110263
 3144 Fit       0.109258
 3145 Fit       0.108886
 3146 Fit       0.109203
 3147 Fit       0.154685
 3148 Fit       0.144144
 3149 Fit       0.135950
 3150 Fit       0.129495
 3151 Fit       0.124336
 3152 Fit       0.120163
 3153 Fit       0.116766
 3154 Fit       0.114018
 3155 Fit       0.111857
 3156 Fit       0.110263
 3157 Fit       0.109258
 3158 Fit       0.108886
 3159 Fit       0.109203
 3160 Fit       0.114661
 3161 Fit       0.112435
 3162 Fit       0.110773
 3163 Fit       0.109695
 3164 Fit       0.109243
 3165 Fit       0.109462
 3166 Fit       0.112088
 3167 Fit       0.110720
 3168 Fit       0.110013
 3169 Fit       0.110009
 3170 Fit       0.111389
 3171 Fit       0.112406
 3172 Fit       0.111300
 3173 Fit       0.110958
 3174 Fit       0.112500
 3175 Fit       0.112420
 3176 Fit       0.114179
 3177 Fit       0.114759
 3178 Fit       0.128250
 3179 Fit       0.116841
 3180 Fit       0.118133
 3181 Fit       0.120299
 3182 Fit       0.123346
 3183 Fit       0.127438
 3184 Fit       0.132887
 3185 Fit       0.119760
 3186 Fit       0.121378
 3187 Fit       0.124346
 3188 Fit       0.128761
 3189 Fit       0.134854
 3190 Fit       0.125688
 3191 Fit       0.129762
 3192 Fit       0.135744
 3193 Fit       0.132261
 3194 Fit       0.138727
 3195 Fit       0.129609
 3196 Fit       0.124184
 3197 Fit       0.127933
 3198 Fit       0.134242
 3199 Fit       0.136662
 3200 Fit       0.131979
 3201 Fit       0.125896
 3202 Fit       0.120040
 3203 Fit       0.122350
 3204 Fit       0.126969
 3205 Fit       0.133316
 3206 Fit       0.140020
 3207 Fit       0.144944
 3208 Fit       0.145882
 3209 Fit       0.141954
 3210 Fit       0.135032
 3211 Fit       0.128090
 3212 Fit       0.122948
 3213 Fit       0.120226
 3214 Fit       0.116953
 3215 Fit       0.118730
 3216 Fit       0.122000
 3217 Fit       0.126754
 3218 Fit       0.132892
 3219 Fit       0.140024
 3220 Fit       0.147281
 3221 Fit       0.153521
 3222 Fit       0.157597
 3223 Fit       0.158136
 3224 Fit       0.154274
 3225 Fit       0.147049
 3226 Fit       0.138746
 3227 Fit       0.131152
 3228 Fit       0.125062
 3229 Fit       0.120655
 3230 Fit       0.117885
 3231 Fit       0.116667
 3232 Fit       0.114786
 3233 Fit       0.116421
 3234 Fit       0.119192
 3235 Fit       0.123134
 3236 Fit       0.156671
 3237 Fit       0.146305
 3238 Fit       0.137115
 3239 Fit       0.129618
 3240 Fit       0.123811
 3241 Fit       0.119525
 3242 Fit       0.116585
 3243 Fit       0.114858
 3244 Fit       0.114268
 3245 Fit       0.113467
 3246 Fit       0.115143
 3247 Fit       0.147889
 3248 Fit       0.137900
 3249 Fit       0.130072
 3250 Fit       0.124060
 3251 Fit       0.119550
 3252 Fit       0.116301
 3253 Fit       0.114143
 3254 Fit       0.112976
 3255 Fit       0.112752
 3256 Fit       0.112973
 3257 Fit       0.148942
 3258 Fit       0.138676
 3259 Fit       0.130770
 3260 Fit       0.124698
 3261 Fit       0.120079
 3262 Fit       0.116647
 3263 Fit       0.114217
 3264 Fit       0.112674
 3265 Fit       0.111957
 3266 Fit       0.112050
 3267 Fit       0.158132
 3268 Fit       0.145355
 3269 Fit       0.135753
 3270 Fit       0.128458
 3271 Fit       0.122907
 3272 Fit       0.118723
 3273 Fit       0.115651
 3274 Fit       0.113526
 3275 Fit       0.112249
 3276 Fit       0.111776
 3277 Fit       0.112114
 3278 Fit       0.153237
 3279 Fit       0.141854
 3280 Fit       0.133279
 3281 Fit       0.126758
 3282 Fit       0.121804
 3283 Fit       0.118091
 3284 Fit       0.115400
 3285 Fit       0.113593
 3286 Fit       0.112595
 3287 Fit       0.112385
 3288 Fit       0.152546
 3289 Fit       0.141588
 3290 Fit       0.133324
 3291 Fit       0.127052
 3292 Fit       0.122309
 3293 Fit       0.118782
 3294 Fit       0.116266
 3295 Fit       0.114634
 3296 Fit       0.137752
 3297 Fit       0.130605
 3298 Fit       0.125271
 3299 Fit       0.121355
 3300 Fit       0.115924
 3301 Fit       0.117515
 3302 Fit       0.121040
 3303 Fit       0.112546
 3304 Fit       0.112190
 3305 Fit       0.113114
 3306 Fit       0.115320
 3307 Fit       0.118947
 3308 Fit       0.124276
 3309 Fit       0.109790
 3310 Fit       0.109454
 3311 Fit       0.110091
 3312 Fit       0.111688
 3313 Fit       0.114325
 3314 Fit       0.118185
 3315 Fit       0.123574
 3316 Fit       0.130973
 3317 Fit       0.111203
 3318 Fit       0.107800
 3319 Fit       0.107495
 3320 Fit       0.107943
 3321 Fit       0.109127
 3322 Fit       0.111088
 3323 Fit       0.113934
 3324 Fit       0.117850
 3325 Fit       0.123126
 3326 Fit       0.130200
 3327 Fit       0.108938
 3328 Fit       0.106458
 3329 Fit       0.106183
 3330 Fit       0.106577
 3331 Fit       0.107622
 3332 Fit       0.109349
 3333 Fit       0.111843
 3334 Fit       0.115256
 3335 Fit       0.119822
 3336 Fit       0.125884
 3337 Fit       0.109351
 3338 Fit       0.107473
 3339 Fit       0.105685
 3340 Fit       0.105427
 3341 Fit       0.105766
 3342 Fit       0.106683
 3343 Fit       0.108199
 3344 Fit       0.110381
 3345 Fit       0.113346
 3346 Fit       0.117276
 3347 Fit       0.122436
 3348 Fit       0.129201
 3349 Fit       0.108278
 3350 Fit       0.106600
 3351 Fit       0.105432
 3352 Fit       0.105179
 3353 Fit       0.105492
 3354 Fit       0.106351
 3355 Fit       0.107773
 3356 Fit       0.109816
 3357 Fit       0.112584
 3358 Fit       0.116235
 3359 Fit       0.121001
 3360 Fit       0.127209
 3361 Fit       0.107897
 3362 Fit       0.106306
 3363 Fit       0.105685
 3364 Fit       0.105427
 3365 Fit       0.105766
 3366 Fit       0.106683
 3367 Fit       0.108199
 3368 Fit       0.110381
 3369 Fit       0.113346
 3370 Fit       0.117276
 3371 Fit       0.122436
 3372 Fit       0.129201
 3373 Fit       0.108278
 3374 Fit       0.106600
 3375 Fit       0.106458
 3376 Fit       0.106183
 3377 Fit       0.106577
 3378 Fit       0.107622
 3379 Fit       0.109349
 3380 Fit       0.111843
 3381 Fit       0.115256
 3382 Fit       0.119822
 3383 Fit       0.125884
 3384 Fit       0.109351
 3385 Fit       0.107473
 3386 Fit       0.107800
 3387 Fit       0.107495
 3388 Fit       0.107943
 3389 Fit       0.109127
 3390 Fit       0.111088
 3391 Fit       0.113934
 3392 Fit       0.117850
 3393 Fit       0.123126
 3394 Fit       0.130200
 3395 Fit       0.108938
 3396 Fit       0.109790
 3397 Fit       0.109454
 3398 Fit       0.110091
 3399 Fit       0.111688
 3400 Fit       0.114325
 3401 Fit       0.118185
 3402 Fit       0.123574
 3403 Fit       0.130973
 3404 Fit       0.111203
 3405 Fit       0.112546
 3406 Fit       0.112190
 3407 Fit       0.113114
 3408 Fit       0.115320
 3409 Fit       0.118947
 3410 Fit       0.124276
 3411 Fit       0.115924
 3412 Fit       0.117515
 3413 Fit       0.121040
 3414 Fit       0.137752
 3415 Fit       0.130605
 3416 Fit       0.125271
 3417 Fit       0.121355
 3418 Fit       0.152546
 3419 Fit       0.141588
 3420 Fit       0.133324
 3421 Fit       0.127052
 3422 Fit       0.122309
 3423 Fit       0.118782
 3424 Fit       0.116266
 3425 Fit       0.114634
 3426 Fit       0.153237
 3427 Fit       0.141854
 3428 Fit       0.133279
 3429 Fit       0.126758
 3430 Fit       0.121804
 3431 Fit       0.118091
 3432 Fit       0.115400
 3433 Fit       0.113593
 3434 Fit       0.112595
 3435 Fit       0.112385
 3436 Fit       0.158132
 3437 Fit       0.145355
 3438 Fit       0.135753
 3439 Fit       0.128458
 3440 Fit       0.122907
 3441 Fit       0.118723
 3442 Fit       0.115651
 3443 Fit       0.113526
 3444 Fit       0.112249
 3445 Fit       0.111776
 3446 Fit       0.112114
 3447 Fit       0.112973
 3448 Fit       0.148942
 3449 Fit       0.138676
 3450 Fit       0.130770
 3451 Fit       0.124698
 3452 Fit       0.120079
 3453 Fit       0.116647
 3454 Fit       0.114217
 3455 Fit       0.112674
 3456 Fit       0.111957
 3457 Fit       0.112050
 3458 Fit       0.113467
 3459 Fit       0.115143
 3460 Fit       0.147889
 3461 Fit       0.137900
 3462 Fit       0.130072
 3463 Fit       0.124060
 3464 Fit       0.119550
 3465 Fit       0.116301
 3466 Fit       0.114143
 3467 Fit       0.112976
 3468 Fit       0.112752
 3469 Fit       0.114786
 3470 Fit       0.116421
 3471 Fit       0.119192
 3472 Fit       0.123134
 3473 Fit       0.156671
 3474 Fit       0.146305
 3475 Fit       0.137115
 3476 Fit       0.129618
 3477 Fit       0.123811
 3478 Fit       0.119525
 3479 Fit       0.116585
 3480 Fit       0.114858
 3481 Fit       0.114268
 3482 Fit       0.116953
 3483 Fit       0.118730
 3484 Fit       0.122000
 3485 Fit       0.126754
 3486 Fit       0.132892
 3487 Fit       0.140024
 3488 Fit       0.147281
 3489 Fit       0.153521
 3490 Fit       0.157597
 3491 Fit       0.158136
 3492 Fit       0.154274
 3493 Fit       0.147049
 3494 Fit       0.138746
 3495 Fit       0.131152
 3496 Fit       0.125062
 3497 Fit       0.120655
 3498 Fit       0.117885
 3499 Fit       0.116667
 3500 Fit       0.120040
 3501 Fit       0.122350
 3502 Fit       0.126969
 3503 Fit       0.133316
 3504 Fit       0.140020
 3505 Fit       0.144944
 3506 Fit       0.145882
 3507 Fit       0.141954
 3508 Fit       0.135032
 3509 Fit       0.128090
 3510 Fit       0.122948
 3511 Fit       0.120226
 3512 Fit       0.124184
 3513 Fit       0.127933
 3514 Fit       0.134242
 3515 Fit       0.136662
 3516 Fit       0.131979
 3517 Fit       0.125896
 3518 Fit       0.129609
 -----------------------------------------------------------------
 Leave Link  602 at Tue Sep 30 17:06:32 2025, MaxMem=  4294967296 cpu:               2.3 elap:               0.2
 (Enter /software/sse/easybuild/prefix/software/Gaussian/16.C.01-avx2-nsc1/g16/l9999.exe)

 Test job not archived.
 1\1\NSC-N1143\FOpt\RMP2-FC\Aug-CC-pVTZ\C2H8N1(1+)\X_DAVVA\30-Sep-2025\
 0\\#P MP2/aug-cc-pvtz Opt=tight density=MP2 Pop=(MK,Hirshfeld) iop(6/3
 3=2) iop(6/42=6) maxdisk=128GB\\ethylammonium\\1,1\N,-1.1654229359,-0.
 3488807743,0.\C,0.000708613,0.6167274234,0.\H,-2.0645574066,0.13633946
 37,0.\H,-1.1343384296,-0.9533024836,0.8236708129\H,-1.1343384296,-0.95
 33024836,-0.8236708129\H,-0.1191793785,1.2356059758,0.885453264\H,-0.1
 191793785,1.2356059758,-0.885453264\C,1.3007603612,-0.1533221937,0.\H,
 1.3964344555,-0.7765376119,0.8884892625\H,2.1270780735,0.5538843203,0.
 \H,1.3964344555,-0.7765376119,-0.8884892625\\Version=ES64L-G16RevC.01\
 State=1-A'\HF=-134.674883\MP2=-135.2532072\RMSD=1.956e-09\RMSF=4.518e-
 06\Dipole=-1.4529769,-0.3860145,0.\Quadrupole=3.4045508,-1.4080988,-1.
 996452,1.5025646,0.,0.\PG=CS [SG(C2H2N1),X(H6)]\\@


 THE MORE ACCURATE THE CALCULATIONS BECOME, THE MORE THE CONCEPTS
 TEND TO VANISH INTO THIN AIR.
     -- R.S. MULLIKEN, J.C.P. 43,S2(1965)
 Job cpu time:       0 days  1 hours 44 minutes 26.4 seconds.
 Elapsed time:       0 days  0 hours  7 minutes 37.7 seconds.
 File lengths (MBytes):  RWF=     52 Int=      0 D2E=      0 Chk=     16 Scr=      1
 Normal termination of Gaussian 16 at Tue Sep 30 17:06:32 2025.
