 Entering Gaussian System, Link 0=/software/sse/easybuild/prefix/software/Gaussian/16.C.01-avx2-nsc1/g16/g16.orig
 Input=1-methylimidazolium.wrap
 Output=1-methylimidazolium.log
 Initial command:
 /software/sse/easybuild/prefix/software/Gaussian/16.C.01-avx2-nsc1/g16/l1.exe "/scratch/local/Gau-1681106.inp" -scrdir="/scratch/local/"
 Entering Link 1 = /software/sse/easybuild/prefix/software/Gaussian/16.C.01-avx2-nsc1/g16/l1.exe PID=   1681107.
  
 Copyright (c) 1988-2019, Gaussian, Inc.  All Rights Reserved.
  
 This is part of the Gaussian(R) 16 program.  It is based on
 the Gaussian(R) 09 system (copyright 2009, Gaussian, Inc.),
 the Gaussian(R) 03 system (copyright 2003, Gaussian, Inc.),
 the Gaussian(R) 98 system (copyright 1998, Gaussian, Inc.),
 the Gaussian(R) 94 system (copyright 1995, Gaussian, Inc.),
 the Gaussian 92(TM) system (copyright 1992, Gaussian, Inc.),
 the Gaussian 90(TM) system (copyright 1990, Gaussian, Inc.),
 the Gaussian 88(TM) system (copyright 1988, Gaussian, Inc.),
 the Gaussian 86(TM) system (copyright 1986, Carnegie Mellon
 University), and the Gaussian 82(TM) system (copyright 1983,
 Carnegie Mellon University). Gaussian is a federally registered
 trademark of Gaussian, Inc.
  
 This software contains proprietary and confidential information,
 including trade secrets, belonging to Gaussian, Inc.
  
 This software is provided under written license and may be
 used, copied, transmitted, or stored only in accord with that
 written license.
  
 The following legend is applicable only to US Government
 contracts under FAR:
  
                    RESTRICTED RIGHTS LEGEND
  
 Use, reproduction and disclosure by the US Government is
 subject to restrictions as set forth in subparagraphs (a)
 and (c) of the Commercial Computer Software - Restricted
 Rights clause in FAR 52.227-19.
  
 Gaussian, Inc.
 340 Quinnipiac St., Bldg. 40, Wallingford CT 06492
  
  
 ---------------------------------------------------------------
 Warning -- This program may not be used in any manner that
 competes with the business of Gaussian, Inc. or will provide
 assistance to any competitor of Gaussian, Inc.  The licensee
 of this program is prohibited from giving any competitor of
 Gaussian, Inc. access to this program.  By using this program,
 the user acknowledges that Gaussian, Inc. is engaged in the
 business of creating and licensing software in the field of
 computational chemistry and represents and warrants to the
 licensee that it is not a competitor of Gaussian, Inc. and that
 it will not use this program in any manner prohibited above.
 ---------------------------------------------------------------
  

 Cite this work as:
 Gaussian 16, Revision C.01,
 M. J. Frisch, G. W. Trucks, H. B. Schlegel, G. E. Scuseria, 
 M. A. Robb, J. R. Cheeseman, G. Scalmani, V. Barone, 
 G. A. Petersson, H. Nakatsuji, X. Li, M. Caricato, A. V. Marenich, 
 J. Bloino, B. G. Janesko, R. Gomperts, B. Mennucci, H. P. Hratchian, 
 J. V. Ortiz, A. F. Izmaylov, J. L. Sonnenberg, D. Williams-Young, 
 F. Ding, F. Lipparini, F. Egidi, J. Goings, B. Peng, A. Petrone, 
 T. Henderson, D. Ranasinghe, V. G. Zakrzewski, J. Gao, N. Rega, 
 G. Zheng, W. Liang, M. Hada, M. Ehara, K. Toyota, R. Fukuda, 
 J. Hasegawa, M. Ishida, T. Nakajima, Y. Honda, O. Kitao, H. Nakai, 
 T. Vreven, K. Throssell, J. A. Montgomery, Jr., J. E. Peralta, 
 F. Ogliaro, M. J. Bearpark, J. J. Heyd, E. N. Brothers, K. N. Kudin, 
 V. N. Staroverov, T. A. Keith, R. Kobayashi, J. Normand, 
 K. Raghavachari, A. P. Rendell, J. C. Burant, S. S. Iyengar, 
 J. Tomasi, M. Cossi, J. M. Millam, M. Klene, C. Adamo, R. Cammi, 
 J. W. Ochterski, R. L. Martin, K. Morokuma, O. Farkas, 
 J. B. Foresman, and D. J. Fox, Gaussian, Inc., Wallingford CT, 2019.
 
 ******************************************
 Gaussian 16:  ES64L-G16RevC.01  3-Jul-2019
                30-Sep-2025 
 ******************************************
 %mem=12000MB
 %nprocshared=16
 Will use up to   16 processors via shared memory.
 %mem=32Gb
 %chk=1-methylimidazolium.chk
 ----------------------------------------------------------------------
 #P MP2/aug-cc-pvtz Opt=tight density=MP2 Pop=(MK,Hirshfeld) iop(6/33=2
 ) iop(6/42=6) maxdisk=128GB
 ----------------------------------------------------------------------
 1/7=10,18=20,19=15,38=1/1,3;
 2/9=110,12=2,17=6,18=5,40=1/2;
 3/5=16,6=1,7=10,11=9,25=1,30=1,71=1/1,2,3;
 4//1;
 5/5=2,38=5/2;
 8/6=4,10=1/1;
 9/15=2,16=-3/6;
 10/5=1/2;
 6/7=2,8=2,9=2,10=2,15=8,20=1,22=2,33=2,42=6,79=1/1,2;
 7/12=2/1,2,3,16;
 1/7=10,18=20,19=15/3(2);
 2/9=110/2;
 99//99;
 2/9=110/2;
 3/5=16,6=1,7=10,11=9,25=1,30=1,71=1/1,2,3;
 4/5=5,16=3,69=1/1;
 5/5=2,38=5/2;
 8/6=4,10=1/1;
 9/15=2,16=-3/6;
 10/5=1/2;
 7/12=2/1,2,3,16;
 1/7=10,18=20,19=15/3(-8);
 2/9=110/2;
 6/7=2,8=2,9=2,10=2,15=8,20=1,22=2,33=2,42=6,79=1/1,2;
 99/9=10/99;
 Leave Link    1 at Tue Sep 30 16:58:49 2025, MaxMem=  4294967296 cpu:               1.0 elap:               0.1
 (Enter /software/sse/easybuild/prefix/software/Gaussian/16.C.01-avx2-nsc1/g16/l101.exe)
 -------------------
 1-methylimidazolium
 -------------------
 Symbolic Z-matrix:
 Charge =  1 Multiplicity = 1
 N                     1.47847  -0.45161   0. 
 C                     1.31774   0.91388   0. 
 C                     0.        1.13686   0. 
 N                    -0.62441  -0.09468   0. 
 C                     0.2943   -1.02186   0. 
 C                    -2.07302  -0.31156   0. 
 H                     2.14322   1.588     0. 
 H                    -0.5508    2.04962   0. 
 H                     0.11509  -2.07482   0. 
 H                    -2.49884   0.13477  -0.88455 
 H                    -2.49884   0.13477   0.88455 
 H                    -2.26681  -1.37168   0. 
 H                     2.34448  -0.94054   0. 
 
 ITRead=  0  0  0  0  0  0  0  0  0  0  0  0  0
 MicOpt= -1 -1 -1 -1 -1 -1 -1 -1 -1 -1 -1 -1 -1
 NAtoms=     13 NQM=       13 NQMF=       0 NMMI=      0 NMMIF=      0
                NMic=       0 NMicF=      0.
                    Isotopes and Nuclear Properties:
 (Nuclear quadrupole moments (NQMom) in fm**2, nuclear magnetic moments (NMagM)
  in nuclear magnetons)

  Atom         1           2           3           4           5           6           7           8           9          10
 IAtWgt=          14          12          12          14          12          12           1           1           1           1
 AtmWgt=  14.0030740  12.0000000  12.0000000  14.0030740  12.0000000  12.0000000   1.0078250   1.0078250   1.0078250   1.0078250
 NucSpn=           2           0           0           2           0           0           1           1           1           1
 AtZEff=  -0.0000000  -0.0000000  -0.0000000  -0.0000000  -0.0000000  -0.0000000  -0.0000000  -0.0000000  -0.0000000  -0.0000000
 NQMom=    2.0440000   0.0000000   0.0000000   2.0440000   0.0000000   0.0000000   0.0000000   0.0000000   0.0000000   0.0000000
 NMagM=    0.4037610   0.0000000   0.0000000   0.4037610   0.0000000   0.0000000   2.7928460   2.7928460   2.7928460   2.7928460
 AtZNuc=   7.0000000   6.0000000   6.0000000   7.0000000   6.0000000   6.0000000   1.0000000   1.0000000   1.0000000   1.0000000

  Atom        11          12          13
 IAtWgt=           1           1           1
 AtmWgt=   1.0078250   1.0078250   1.0078250
 NucSpn=           1           1           1
 AtZEff=  -0.0000000  -0.0000000  -0.0000000
 NQMom=    0.0000000   0.0000000   0.0000000
 NMagM=    2.7928460   2.7928460   2.7928460
 AtZNuc=   1.0000000   1.0000000   1.0000000
 Leave Link  101 at Tue Sep 30 16:58:50 2025, MaxMem=  4294967296 cpu:               5.4 elap:               0.4
 (Enter /software/sse/easybuild/prefix/software/Gaussian/16.C.01-avx2-nsc1/g16/l103.exe)

 GradGradGradGradGradGradGradGradGradGradGradGradGradGradGradGradGradGrad
 Berny optimization.
 Initialization pass.
                           ----------------------------
                           !    Initial Parameters    !
                           ! (Angstroms and Degrees)  !
 --------------------------                            --------------------------
 ! Name  Definition              Value          Derivative Info.                !
 --------------------------------------------------------------------------------
 ! R1    R(1,2)                  1.3749         estimate D2E/DX2                !
 ! R2    R(1,5)                  1.3143         estimate D2E/DX2                !
 ! R3    R(1,13)                 0.9945         estimate D2E/DX2                !
 ! R4    R(2,3)                  1.3365         estimate D2E/DX2                !
 ! R5    R(2,7)                  1.0658         estimate D2E/DX2                !
 ! R6    R(3,4)                  1.3808         estimate D2E/DX2                !
 ! R7    R(3,8)                  1.0661         estimate D2E/DX2                !
 ! R8    R(4,5)                  1.3053         estimate D2E/DX2                !
 ! R9    R(4,6)                  1.4648         estimate D2E/DX2                !
 ! R10   R(5,9)                  1.0681         estimate D2E/DX2                !
 ! R11   R(6,10)                 1.0784         estimate D2E/DX2                !
 ! R12   R(6,11)                 1.0784         estimate D2E/DX2                !
 ! R13   R(6,12)                 1.0777         estimate D2E/DX2                !
 ! A1    A(2,1,5)              109.0003         estimate D2E/DX2                !
 ! A2    A(2,1,13)             126.1614         estimate D2E/DX2                !
 ! A3    A(5,1,13)             124.8382         estimate D2E/DX2                !
 ! A4    A(1,2,3)              106.3176         estimate D2E/DX2                !
 ! A5    A(1,2,7)              122.5231         estimate D2E/DX2                !
 ! A6    A(3,2,7)              131.1593         estimate D2E/DX2                !
 ! A7    A(2,3,4)              107.2815         estimate D2E/DX2                !
 ! A8    A(2,3,8)              130.7129         estimate D2E/DX2                !
 ! A9    A(4,3,8)              122.0056         estimate D2E/DX2                !
 ! A10   A(3,4,5)              108.3772         estimate D2E/DX2                !
 ! A11   A(3,4,6)              125.4006         estimate D2E/DX2                !
 ! A12   A(5,4,6)              126.2222         estimate D2E/DX2                !
 ! A13   A(1,5,4)              109.0234         estimate D2E/DX2                !
 ! A14   A(1,5,9)              125.3726         estimate D2E/DX2                !
 ! A15   A(4,5,9)              125.6039         estimate D2E/DX2                !
 ! A16   A(4,6,10)             109.2218         estimate D2E/DX2                !
 ! A17   A(4,6,11)             109.2218         estimate D2E/DX2                !
 ! A18   A(4,6,12)             108.8741         estimate D2E/DX2                !
 ! A19   A(10,6,11)            110.2172         estimate D2E/DX2                !
 ! A20   A(10,6,12)            109.6412         estimate D2E/DX2                !
 ! A21   A(11,6,12)            109.6412         estimate D2E/DX2                !
 ! D1    D(5,1,2,3)              0.0            estimate D2E/DX2                !
 ! D2    D(5,1,2,7)            180.0            estimate D2E/DX2                !
 ! D3    D(13,1,2,3)           180.0            estimate D2E/DX2                !
 ! D4    D(13,1,2,7)             0.0            estimate D2E/DX2                !
 ! D5    D(2,1,5,4)              0.0            estimate D2E/DX2                !
 ! D6    D(2,1,5,9)            180.0            estimate D2E/DX2                !
 ! D7    D(13,1,5,4)           180.0            estimate D2E/DX2                !
 ! D8    D(13,1,5,9)             0.0            estimate D2E/DX2                !
 ! D9    D(1,2,3,4)              0.0            estimate D2E/DX2                !
 ! D10   D(1,2,3,8)            180.0            estimate D2E/DX2                !
 ! D11   D(7,2,3,4)            180.0            estimate D2E/DX2                !
 ! D12   D(7,2,3,8)              0.0            estimate D2E/DX2                !
 ! D13   D(2,3,4,5)              0.0            estimate D2E/DX2                !
 ! D14   D(2,3,4,6)            180.0            estimate D2E/DX2                !
 ! D15   D(8,3,4,5)            180.0            estimate D2E/DX2                !
 ! D16   D(8,3,4,6)              0.0            estimate D2E/DX2                !
 ! D17   D(3,4,5,1)              0.0            estimate D2E/DX2                !
 ! D18   D(3,4,5,9)            180.0            estimate D2E/DX2                !
 ! D19   D(6,4,5,1)            180.0            estimate D2E/DX2                !
 ! D20   D(6,4,5,9)              0.0            estimate D2E/DX2                !
 ! D21   D(3,4,6,10)            60.3038         estimate D2E/DX2                !
 ! D22   D(3,4,6,11)           -60.3038         estimate D2E/DX2                !
 ! D23   D(3,4,6,12)           180.0            estimate D2E/DX2                !
 ! D24   D(5,4,6,10)          -119.6962         estimate D2E/DX2                !
 ! D25   D(5,4,6,11)           119.6962         estimate D2E/DX2                !
 ! D26   D(5,4,6,12)             0.0            estimate D2E/DX2                !
 --------------------------------------------------------------------------------
 Trust Radius=3.00D-01 FncErr=1.00D-07 GrdErr=1.00D-07 EigMax=2.50D+02 EigMin=1.00D-04
 Number of steps in this run=     70 maximum allowed number of steps=    100.
 GradGradGradGradGradGradGradGradGradGradGradGradGradGradGradGradGradGrad

 Leave Link  103 at Tue Sep 30 16:58:50 2025, MaxMem=  4294967296 cpu:               0.2 elap:               0.0
 (Enter /software/sse/easybuild/prefix/software/Gaussian/16.C.01-avx2-nsc1/g16/l202.exe)
                          Input orientation:                          
 ---------------------------------------------------------------------
 Center     Atomic      Atomic             Coordinates (Angstroms)
 Number     Number       Type             X           Y           Z
 ---------------------------------------------------------------------
      1          7           0        1.478470   -0.451610    0.000000
      2          6           0        1.317740    0.913880    0.000000
      3          6           0        0.000000    1.136860    0.000000
      4          7           0       -0.624410   -0.094680    0.000000
      5          6           0        0.294300   -1.021860    0.000000
      6          6           0       -2.073020   -0.311560    0.000000
      7          1           0        2.143220    1.588000    0.000000
      8          1           0       -0.550800    2.049620    0.000000
      9          1           0        0.115090   -2.074820    0.000000
     10          1           0       -2.498840    0.134770   -0.884550
     11          1           0       -2.498840    0.134770    0.884550
     12          1           0       -2.266810   -1.371680    0.000000
     13          1           0        2.344480   -0.940540    0.000000
 ---------------------------------------------------------------------
                    Distance matrix (angstroms):
                    1          2          3          4          5
     1  N    0.000000
     2  C    1.374917   0.000000
     3  C    2.170048   1.336473   0.000000
     4  N    2.132956   2.188410   1.380789   0.000000
     5  C    1.314323   2.189639   2.178689   1.305255   0.000000
     6  C    3.554250   3.605407   2.528899   1.464755   2.471585
     7  H    2.145204   1.065765   2.190187   3.239010   3.198417
     8  H    3.220883   2.186629   1.066073   2.145563   3.185621
     9  H    2.119815   3.221598   3.213741   2.113721   1.068102
    10  H    4.116463   3.994462   2.833869   2.085321   3.149897
    11  H    4.116463   3.994462   2.833869   2.085321   3.149897
    12  H    3.856637   4.251210   3.381006   2.080434   2.584890
    13  H    0.994498   2.119686   3.132440   3.087035   2.051792
                    6          7          8          9         10
     6  C    0.000000
     7  H    4.624393   0.000000
     8  H    2.809328   2.733283   0.000000
     9  H    2.810144   4.186832   4.177848   0.000000
    10  H    1.078407   4.943989   2.871226   3.535159   0.000000
    11  H    1.078407   4.943989   2.871226   3.535159   1.769100
    12  H    1.077687   5.311127   3.827530   2.483516   1.762288
    13  H    4.462054   2.536537   4.162175   2.501354   5.039491
                   11         12         13
    11  H    0.000000
    12  H    1.762288   0.000000
    13  H    5.039491   4.631401   0.000000
 Stoichiometry    C4H7N2(1+)
 Framework group  CS[SG(C4H5N2),X(H2)]
 Deg. of freedom    22
 Full point group                 CS      NOp   2
 Largest Abelian subgroup         CS      NOp   2
 Largest concise Abelian subgroup CS      NOp   2
                         Standard orientation:                         
 ---------------------------------------------------------------------
 Center     Atomic      Atomic             Coordinates (Angstroms)
 Number     Number       Type             X           Y           Z
 ---------------------------------------------------------------------
      1          7           0        0.668155   -1.394056    0.000000
      2          6           0       -0.705999   -1.439853    0.000000
      3          6           0       -1.124012   -0.170434    0.000000
      4          7           0        0.000000    0.631548    0.000000
      5          6           0        1.054432   -0.137778    0.000000
      6          6           0       -0.002743    2.096301    0.000000
      7          1           0       -1.248747   -2.357067    0.000000
      8          1           0       -2.109031    0.237302    0.000000
      9          1           0        2.068626    0.197264    0.000000
     10          1           0       -0.507867    2.450396    0.884550
     11          1           0       -0.507867    2.450396   -0.884550
     12          1           0        1.016343    2.446832    0.000000
     13          1           0        1.281389   -2.176979    0.000000
 ---------------------------------------------------------------------
 Rotational constants (GHZ):           9.0416830           3.5830285           2.6078943
 Leave Link  202 at Tue Sep 30 16:58:50 2025, MaxMem=  4294967296 cpu:               0.1 elap:               0.0
 (Enter /software/sse/easybuild/prefix/software/Gaussian/16.C.01-avx2-nsc1/g16/l301.exe)
 Standard basis: Aug-CC-pVTZ (5D, 7F)
 Ernie: Thresh=  0.10000D-02 Tol=  0.10000D-05 Strict=F.
 Ernie:  18 primitive shells out of 257 were deleted.
 There are   337 symmetry adapted cartesian basis functions of A'  symmetry.
 There are   168 symmetry adapted cartesian basis functions of A"  symmetry.
 There are   283 symmetry adapted basis functions of A'  symmetry.
 There are   154 symmetry adapted basis functions of A"  symmetry.
   437 basis functions,   621 primitive gaussians,   505 cartesian basis functions
    22 alpha electrons       22 beta electrons
       nuclear repulsion energy       239.3263925331 Hartrees.
 IExCor=    0 DFT=F Ex=HF Corr=None ExCW=0 ScaHFX=  1.000000
 ScaDFX=  1.000000  1.000000  1.000000  1.000000 ScalE2=  1.000000  1.000000
 IRadAn=      5 IRanWt=     -1 IRanGd=            0 ICorTp=0 IEmpDi=  4
 NAtoms=   13 NActive=   13 NUniq=   12 SFac= 1.17D+00 NAtFMM=   60 NAOKFM=F Big=F
 Integral buffers will be    131072 words long.
 Raffenetti 1 integral format.
 Two-electron integral symmetry is turned on.
 Leave Link  301 at Tue Sep 30 16:58:51 2025, MaxMem=  4294967296 cpu:               0.8 elap:               0.1
 (Enter /software/sse/easybuild/prefix/software/Gaussian/16.C.01-avx2-nsc1/g16/l302.exe)
 NPDir=0 NMtPBC=     1 NCelOv=     1 NCel=       1 NClECP=     1 NCelD=      1
         NCelK=      1 NCelE2=     1 NClLst=     1 CellRange=     0.0.
 One-electron integrals computed using PRISM.
 One-electron integral symmetry used in STVInt
 NBasis=   437 RedAO= T EigKep=  2.62D-06  NBF=   283   154
 NBsUse=   437 1.00D-06 EigRej= -1.00D+00 NBFU=   283   154
 Leave Link  302 at Tue Sep 30 16:58:51 2025, MaxMem=  4294967296 cpu:               3.4 elap:               0.2
 (Enter /software/sse/easybuild/prefix/software/Gaussian/16.C.01-avx2-nsc1/g16/l303.exe)
 DipDrv:  MaxL=1.
 Leave Link  303 at Tue Sep 30 16:58:52 2025, MaxMem=  4294967296 cpu:               0.7 elap:               0.1
 (Enter /software/sse/easybuild/prefix/software/Gaussian/16.C.01-avx2-nsc1/g16/l401.exe)
 ExpMin= 2.53D-02 ExpMax= 1.14D+04 ExpMxC= 3.89D+02 IAcc=3 IRadAn=         5 AccDes= 0.00D+00
 Harris functional with IExCor=  205 and IRadAn=       5 diagonalized for initial guess.
 HarFok:  IExCor=  205 AccDes= 0.00D+00 IRadAn=         5 IDoV= 1 UseB2=F ITyADJ=14
 ICtDFT=  3500011 ScaDFX=  1.000000  1.000000  1.000000  1.000000
 FoFCou: FMM=F IPFlag=           0 FMFlag=      100000 FMFlg1=           0
         NFxFlg=           0 DoJE=T BraDBF=F KetDBF=T FulRan=T
         wScrn=  0.000000 ICntrl=       500 IOpCl=  0 I1Cent=   200000004 NGrid=           0
         NMat0=    1 NMatS0=      1 NMatT0=    0 NMatD0=    1 NMtDS0=    0 NMtDT0=    0
 Petite list used in FoFCou.
 Harris En= -264.705639910016    
 JPrj=0 DoOrth=F DoCkMO=F.
 Initial guess orbital symmetries:
       Occupied  (A') (A') (A') (A') (A') (A') (A') (A') (A') (A')
                 (A') (A') (A') (A') (A") (A') (A') (A') (A") (A')
                 (A") (A")
       Virtual   (A") (A") (A') (A') (A') (A') (A') (A") (A') (A')
                 (A") (A') (A") (A') (A') (A') (A') (A') (A') (A')
                 (A") (A") (A") (A') (A') (A') (A') (A') (A') (A")
                 (A') (A") (A') (A') (A') (A") (A') (A') (A') (A')
                 (A") (A') (A') (A") (A') (A") (A') (A") (A') (A")
                 (A') (A') (A") (A') (A') (A') (A') (A") (A') (A')
                 (A") (A') (A") (A') (A") (A') (A") (A') (A") (A')
                 (A") (A') (A') (A') (A') (A') (A") (A') (A') (A')
                 (A') (A") (A') (A') (A") (A') (A') (A') (A") (A')
                 (A") (A') (A") (A') (A") (A') (A") (A') (A") (A')
                 (A") (A') (A') (A') (A') (A") (A') (A') (A") (A')
                 (A') (A") (A') (A") (A') (A') (A") (A') (A") (A')
                 (A") (A') (A') (A") (A") (A') (A') (A") (A') (A")
                 (A') (A') (A') (A') (A") (A') (A") (A') (A") (A')
                 (A') (A") (A") (A') (A") (A') (A') (A") (A') (A")
                 (A') (A') (A") (A') (A') (A") (A') (A') (A") (A')
                 (A") (A') (A") (A') (A") (A') (A') (A") (A') (A')
                 (A") (A') (A') (A") (A') (A') (A") (A") (A') (A')
                 (A') (A") (A') (A') (A") (A') (A") (A") (A') (A')
                 (A") (A') (A") (A') (A') (A') (A") (A') (A") (A")
                 (A') (A') (A') (A") (A') (A') (A') (A") (A') (A')
                 (A") (A') (A") (A') (A') (A") (A') (A") (A") (A')
                 (A') (A') (A") (A') (A") (A') (A') (A') (A") (A')
                 (A') (A") (A') (A') (A") (A') (A") (A') (A') (A")
                 (A') (A") (A') (A') (A") (A') (A') (A') (A") (A')
                 (A") (A') (A') (A') (A") (A') (A') (A') (A") (A")
                 (A') (A') (A") (A') (A") (A") (A') (A') (A') (A")
                 (A') (A') (A") (A") (A') (A") (A") (A') (A") (A')
                 (A') (A") (A') (A') (A") (A') (A") (A") (A') (A')
                 (A') (A") (A') (A") (A') (A') (A") (A') (A") (A')
                 (A") (A') (A") (A") (A') (A") (A') (A') (A') (A")
                 (A') (A') (A') (A') (A") (A') (A") (A') (A') (A")
                 (A") (A') (A') (A") (A") (A') (A') (A") (A') (A')
                 (A') (A") (A') (A') (A") (A') (A') (A") (A') (A')
                 (A') (A") (A") (A') (A') (A") (A') (A") (A') (A")
                 (A') (A') (A") (A') (A") (A') (A') (A") (A') (A')
                 (A") (A') (A") (A') (A") (A') (A') (A") (A") (A')
                 (A") (A') (A") (A') (A") (A") (A') (A') (A") (A')
                 (A") (A') (A") (A') (A') (A") (A') (A') (A') (A")
                 (A') (A") (A') (A') (A') (A') (A') (A") (A') (A')
                 (A') (A') (A') (A') (A') (A') (A') (A') (A') (A')
                 (A') (A') (A') (A') (A')
 The electronic state of the initial guess is 1-A'.
 Leave Link  401 at Tue Sep 30 16:58:53 2025, MaxMem=  4294967296 cpu:               7.7 elap:               0.5
 (Enter /software/sse/easybuild/prefix/software/Gaussian/16.C.01-avx2-nsc1/g16/l502.exe)
 Integral symmetry usage will be decided dynamically.
 Closed shell SCF:
 Using DIIS extrapolation, IDIIS=  1040.
 NGot=  4294967296 LenX=  4294443591 LenY=  4294188061
 Requested convergence on RMS density matrix=1.00D-08 within 128 cycles.
 Requested convergence on MAX density matrix=1.00D-06.
 Requested convergence on             energy=1.00D-06.
 No special actions if energy rises.
 Fock matrices will be formed incrementally for  20 cycles.

 Cycle   1  Pass 1  IDiag  1:
 FoFJK:  IHMeth= 1 ICntrl=       0 DoSepK=F KAlg= 0 I1Cent=           0 FoldK=F
 IRaf= 990000000 NMat=       1 IRICut=       1 DoRegI=T DoRafI=F ISym2E= 1 IDoP0=0 IntGTp=1.
 FoFCou: FMM=F IPFlag=           0 FMFlag=      100000 FMFlg1=           0
         NFxFlg=           0 DoJE=F BraDBF=F KetDBF=F FulRan=T
         wScrn=  0.000000 ICntrl=         0 IOpCl=  0 I1Cent=           0 NGrid=           0
         NMat0=    1 NMatS0=      1 NMatT0=    0 NMatD0=    1 NMtDS0=    0 NMtDT0=    0
 Petite list used in FoFCou.
 E= -264.118483484497    
 DIIS: error= 2.42D-02 at cycle   1 NSaved=   1.
 NSaved= 1 IEnMin= 1 EnMin= -264.118483484497     IErMin= 1 ErrMin= 2.42D-02
 ErrMax= 2.42D-02  0.00D+00 EMaxC= 1.00D-01 BMatC= 5.14D-01 BMatP= 5.14D-01
 IDIUse=3 WtCom= 7.58D-01 WtEn= 2.42D-01
 Coeff-Com:  0.100D+01
 Coeff-En:   0.100D+01
 Coeff:      0.100D+01
 Gap=     0.447 Goal=   None    Shift=    0.000
 GapD=    0.447 DampG=2.000 DampE=0.500 DampFc=1.0000 IDamp=-1.
 RMSDP=1.82D-03 MaxDP=1.50D-01              OVMax= 1.06D-01

 Cycle   2  Pass 1  IDiag  1:
 RMSU=  1.79D-03    CP:  9.60D-01
 E= -264.311726374380     Delta-E=       -0.193242889883 Rises=F Damp=F
 DIIS: error= 6.46D-03 at cycle   2 NSaved=   2.
 NSaved= 2 IEnMin= 2 EnMin= -264.311726374380     IErMin= 2 ErrMin= 6.46D-03
 ErrMax= 6.46D-03  0.00D+00 EMaxC= 1.00D-01 BMatC= 2.46D-02 BMatP= 5.14D-01
 IDIUse=3 WtCom= 9.35D-01 WtEn= 6.46D-02
 Coeff-Com:  0.589D-01 0.941D+00
 Coeff-En:   0.000D+00 0.100D+01
 Coeff:      0.551D-01 0.945D+00
 Gap=     0.484 Goal=   None    Shift=    0.000
 RMSDP=4.57D-04 MaxDP=2.31D-02 DE=-1.93D-01 OVMax= 5.26D-02

 Cycle   3  Pass 1  IDiag  1:
 RMSU=  4.39D-04    CP:  9.71D-01  1.05D+00
 E= -264.328761848836     Delta-E=       -0.017035474456 Rises=F Damp=F
 DIIS: error= 2.26D-03 at cycle   3 NSaved=   3.
 NSaved= 3 IEnMin= 3 EnMin= -264.328761848836     IErMin= 3 ErrMin= 2.26D-03
 ErrMax= 2.26D-03  0.00D+00 EMaxC= 1.00D-01 BMatC= 3.50D-03 BMatP= 2.46D-02
 IDIUse=3 WtCom= 9.77D-01 WtEn= 2.26D-02
 Coeff-Com: -0.223D-01 0.240D+00 0.783D+00
 Coeff-En:   0.000D+00 0.000D+00 0.100D+01
 Coeff:     -0.218D-01 0.234D+00 0.788D+00
 Gap=     0.454 Goal=   None    Shift=    0.000
 RMSDP=1.20D-04 MaxDP=4.60D-03 DE=-1.70D-02 OVMax= 1.70D-02

 Cycle   4  Pass 1  IDiag  1:
 RMSU=  1.01D-04    CP:  9.70D-01  1.08D+00  8.86D-01
 E= -264.331846773927     Delta-E=       -0.003084925092 Rises=F Damp=F
 DIIS: error= 9.47D-04 at cycle   4 NSaved=   4.
 NSaved= 4 IEnMin= 4 EnMin= -264.331846773927     IErMin= 4 ErrMin= 9.47D-04
 ErrMax= 9.47D-04  0.00D+00 EMaxC= 1.00D-01 BMatC= 1.44D-04 BMatP= 3.50D-03
 IDIUse=3 WtCom= 9.91D-01 WtEn= 9.47D-03
 Coeff-Com: -0.626D-02 0.279D-01 0.178D+00 0.801D+00
 Coeff-En:   0.000D+00 0.000D+00 0.000D+00 0.100D+01
 Coeff:     -0.620D-02 0.276D-01 0.176D+00 0.803D+00
 Gap=     0.452 Goal=   None    Shift=    0.000
 RMSDP=2.98D-05 MaxDP=1.54D-03 DE=-3.08D-03 OVMax= 6.71D-03

 Cycle   5  Pass 1  IDiag  1:
 RMSU=  2.67D-05    CP:  9.70D-01  1.08D+00  9.16D-01  9.92D-01
 E= -264.332038263613     Delta-E=       -0.000191489686 Rises=F Damp=F
 DIIS: error= 4.16D-04 at cycle   5 NSaved=   5.
 NSaved= 5 IEnMin= 5 EnMin= -264.332038263613     IErMin= 5 ErrMin= 4.16D-04
 ErrMax= 4.16D-04  0.00D+00 EMaxC= 1.00D-01 BMatC= 2.05D-05 BMatP= 1.44D-04
 IDIUse=3 WtCom= 9.96D-01 WtEn= 4.16D-03
 Coeff-Com:  0.222D-02-0.278D-01-0.875D-01 0.676D-01 0.105D+01
 Coeff-En:   0.000D+00 0.000D+00 0.000D+00 0.000D+00 0.100D+01
 Coeff:      0.221D-02-0.276D-01-0.871D-01 0.673D-01 0.105D+01
 Gap=     0.453 Goal=   None    Shift=    0.000
 RMSDP=1.70D-05 MaxDP=6.99D-04 DE=-1.91D-04 OVMax= 3.57D-03

 Cycle   6  Pass 1  IDiag  1:
 RMSU=  1.05D-05    CP:  9.71D-01  1.08D+00  9.29D-01  1.08D+00  1.23D+00
 E= -264.332089151285     Delta-E=       -0.000050887672 Rises=F Damp=F
 DIIS: error= 1.85D-04 at cycle   6 NSaved=   6.
 NSaved= 6 IEnMin= 6 EnMin= -264.332089151285     IErMin= 6 ErrMin= 1.85D-04
 ErrMax= 1.85D-04  0.00D+00 EMaxC= 1.00D-01 BMatC= 3.43D-06 BMatP= 2.05D-05
 IDIUse=3 WtCom= 9.98D-01 WtEn= 1.85D-03
 Coeff-Com:  0.115D-02-0.870D-02-0.365D-01-0.780D-01 0.114D+00 0.101D+01
 Coeff-En:   0.000D+00 0.000D+00 0.000D+00 0.000D+00 0.000D+00 0.100D+01
 Coeff:      0.114D-02-0.868D-02-0.364D-01-0.779D-01 0.114D+00 0.101D+01
 Gap=     0.452 Goal=   None    Shift=    0.000
 RMSDP=7.09D-06 MaxDP=3.69D-04 DE=-5.09D-05 OVMax= 1.85D-03

 Cycle   7  Pass 1  IDiag  1:
 RMSU=  4.12D-06    CP:  9.71D-01  1.08D+00  9.33D-01  1.11D+00  1.37D+00
                    CP:  1.28D+00
 E= -264.332099783748     Delta-E=       -0.000010632463 Rises=F Damp=F
 DIIS: error= 8.09D-05 at cycle   7 NSaved=   7.
 NSaved= 7 IEnMin= 7 EnMin= -264.332099783748     IErMin= 7 ErrMin= 8.09D-05
 ErrMax= 8.09D-05  0.00D+00 EMaxC= 1.00D-01 BMatC= 6.76D-07 BMatP= 3.43D-06
 IDIUse=1 WtCom= 1.00D+00 WtEn= 0.00D+00
 Coeff-Com: -0.284D-03 0.461D-02 0.125D-01-0.135D-01-0.207D+00 0.124D+00
 Coeff-Com:  0.108D+01
 Coeff:     -0.284D-03 0.461D-02 0.125D-01-0.135D-01-0.207D+00 0.124D+00
 Coeff:      0.108D+01
 Gap=     0.453 Goal=   None    Shift=    0.000
 RMSDP=3.67D-06 MaxDP=2.66D-04 DE=-1.06D-05 OVMax= 1.28D-03

 Cycle   8  Pass 1  IDiag  1:
 RMSU=  1.87D-06    CP:  9.71D-01  1.08D+00  9.34D-01  1.12D+00  1.42D+00
                    CP:  1.49D+00  1.38D+00
 E= -264.332102287359     Delta-E=       -0.000002503611 Rises=F Damp=F
 DIIS: error= 2.18D-05 at cycle   8 NSaved=   8.
 NSaved= 8 IEnMin= 8 EnMin= -264.332102287359     IErMin= 8 ErrMin= 2.18D-05
 ErrMax= 2.18D-05  0.00D+00 EMaxC= 1.00D-01 BMatC= 9.76D-08 BMatP= 6.76D-07
 IDIUse=1 WtCom= 1.00D+00 WtEn= 0.00D+00
 Coeff-Com: -0.195D-03 0.176D-02 0.610D-02 0.170D-01-0.326D-01-0.199D+00
 Coeff-Com:  0.429D-01 0.116D+01
 Coeff:     -0.195D-03 0.176D-02 0.610D-02 0.170D-01-0.326D-01-0.199D+00
 Coeff:      0.429D-01 0.116D+01
 Gap=     0.453 Goal=   None    Shift=    0.000
 RMSDP=1.68D-06 MaxDP=9.63D-05 DE=-2.50D-06 OVMax= 4.62D-04

 Cycle   9  Pass 1  IDiag  1:
 RMSU=  6.19D-07    CP:  9.71D-01  1.08D+00  9.34D-01  1.12D+00  1.44D+00
                    CP:  1.58D+00  1.62D+00  1.23D+00
 E= -264.332102598554     Delta-E=       -0.000000311194 Rises=F Damp=F
 DIIS: error= 3.15D-06 at cycle   9 NSaved=   9.
 NSaved= 9 IEnMin= 9 EnMin= -264.332102598554     IErMin= 9 ErrMin= 3.15D-06
 ErrMax= 3.15D-06  0.00D+00 EMaxC= 1.00D-01 BMatC= 3.04D-09 BMatP= 9.76D-08
 IDIUse=1 WtCom= 1.00D+00 WtEn= 0.00D+00
 Coeff-Com: -0.192D-05-0.968D-04-0.341D-03 0.222D-02 0.921D-02-0.169D-01
 Coeff-Com: -0.447D-01 0.556D-01 0.995D+00
 Coeff:     -0.192D-05-0.968D-04-0.341D-03 0.222D-02 0.921D-02-0.169D-01
 Coeff:     -0.447D-01 0.556D-01 0.995D+00
 Gap=     0.453 Goal=   None    Shift=    0.000
 RMSDP=2.23D-07 MaxDP=1.27D-05 DE=-3.11D-07 OVMax= 3.48D-05

 Cycle  10  Pass 1  IDiag  1:
 RMSU=  1.48D-07    CP:  9.71D-01  1.08D+00  9.34D-01  1.12D+00  1.44D+00
                    CP:  1.58D+00  1.64D+00  1.28D+00  1.13D+00
 E= -264.332102604499     Delta-E=       -0.000000005945 Rises=F Damp=F
 DIIS: error= 1.22D-06 at cycle  10 NSaved=  10.
 NSaved=10 IEnMin=10 EnMin= -264.332102604499     IErMin=10 ErrMin= 1.22D-06
 ErrMax= 1.22D-06  0.00D+00 EMaxC= 1.00D-01 BMatC= 4.28D-10 BMatP= 3.04D-09
 IDIUse=1 WtCom= 1.00D+00 WtEn= 0.00D+00
 Coeff-Com:  0.194D-04-0.193D-03-0.683D-03-0.161D-02 0.427D-02 0.200D-01
 Coeff-Com: -0.714D-02-0.132D+00 0.115D+00 0.100D+01
 Coeff:      0.194D-04-0.193D-03-0.683D-03-0.161D-02 0.427D-02 0.200D-01
 Coeff:     -0.714D-02-0.132D+00 0.115D+00 0.100D+01
 Gap=     0.453 Goal=   None    Shift=    0.000
 RMSDP=7.38D-08 MaxDP=3.05D-06 DE=-5.95D-09 OVMax= 8.76D-06

 Cycle  11  Pass 1  IDiag  1:
 RMSU=  4.96D-08    CP:  9.71D-01  1.08D+00  9.34D-01  1.12D+00  1.44D+00
                    CP:  1.58D+00  1.64D+00  1.29D+00  1.21D+00  1.12D+00
 E= -264.332102605276     Delta-E=       -0.000000000777 Rises=F Damp=F
 DIIS: error= 2.20D-07 at cycle  11 NSaved=  11.
 NSaved=11 IEnMin=11 EnMin= -264.332102605276     IErMin=11 ErrMin= 2.20D-07
 ErrMax= 2.20D-07  0.00D+00 EMaxC= 1.00D-01 BMatC= 1.98D-11 BMatP= 4.28D-10
 IDIUse=1 WtCom= 1.00D+00 WtEn= 0.00D+00
 Coeff-Com: -0.156D-05 0.240D-04 0.972D-04 0.436D-04-0.117D-02-0.157D-02
 Coeff-Com:  0.470D-02 0.111D-01-0.842D-01-0.122D+00 0.119D+01
 Coeff:     -0.156D-05 0.240D-04 0.972D-04 0.436D-04-0.117D-02-0.157D-02
 Coeff:      0.470D-02 0.111D-01-0.842D-01-0.122D+00 0.119D+01
 Gap=     0.453 Goal=   None    Shift=    0.000
 RMSDP=2.14D-08 MaxDP=1.52D-06 DE=-7.77D-10 OVMax= 2.81D-06

 Cycle  12  Pass 1  IDiag  1:
 RMSU=  1.31D-08    CP:  9.71D-01  1.08D+00  9.34D-01  1.12D+00  1.44D+00
                    CP:  1.58D+00  1.65D+00  1.29D+00  1.22D+00  1.16D+00
                    CP:  1.26D+00
 E= -264.332102605327     Delta-E=       -0.000000000051 Rises=F Damp=F
 DIIS: error= 7.37D-08 at cycle  12 NSaved=  12.
 NSaved=12 IEnMin=12 EnMin= -264.332102605327     IErMin=12 ErrMin= 7.37D-08
 ErrMax= 7.37D-08  0.00D+00 EMaxC= 1.00D-01 BMatC= 1.61D-12 BMatP= 1.98D-11
 IDIUse=1 WtCom= 1.00D+00 WtEn= 0.00D+00
 Coeff-Com: -0.806D-06 0.829D-05 0.324D-04 0.851D-04-0.150D-03-0.103D-02
 Coeff-Com:  0.591D-03 0.666D-02-0.576D-02-0.521D-01 0.265D-01 0.103D+01
 Coeff:     -0.806D-06 0.829D-05 0.324D-04 0.851D-04-0.150D-03-0.103D-02
 Coeff:      0.591D-03 0.666D-02-0.576D-02-0.521D-01 0.265D-01 0.103D+01
 Gap=     0.453 Goal=   None    Shift=    0.000
 RMSDP=5.10D-09 MaxDP=2.28D-07 DE=-5.13D-11 OVMax= 9.53D-07

 SCF Done:  E(RHF) =  -264.332102605     A.U. after   12 cycles
            NFock= 12  Conv=0.51D-08     -V/T= 2.0004
 KE= 2.642189046007D+02 PE=-1.085738740092D+03 EE= 3.178613403530D+02
 Leave Link  502 at Tue Sep 30 17:00:08 2025, MaxMem=  4294967296 cpu:            1183.3 elap:              74.5
 (Enter /software/sse/easybuild/prefix/software/Gaussian/16.C.01-avx2-nsc1/g16/l801.exe)
 ExpMin= 2.53D-02 ExpMax= 1.14D+04 ExpMxC= 3.89D+02 IAcc=3 IRadAn=         5 AccDes= 0.00D+00
 HarFok:  IExCor=  205 AccDes= 0.00D+00 IRadAn=         5 IDoV=-2 UseB2=F ITyADJ=14
 ICtDFT= 12500011 ScaDFX=  1.000000  1.000000  1.000000  1.000000
 Largest valence mixing into a core orbital is  1.84D-04
 Largest core mixing into a valence orbital is  3.01D-05
 Range of M.O.s used for correlation:     7   437
 NBasis=   437 NAE=    22 NBE=    22 NFC=     6 NFV=     0
 NROrb=    431 NOA=    16 NOB=    16 NVA=   415 NVB=   415

 **** Warning!!: The largest alpha MO coefficient is  0.88382810D+02

 Leave Link  801 at Tue Sep 30 17:00:08 2025, MaxMem=  4294967296 cpu:               1.1 elap:               0.1
 (Enter /software/sse/easybuild/prefix/software/Gaussian/16.C.01-avx2-nsc1/g16/l906.exe)
 Frozen-core derivative calculation, NFC=   6 NFV=   0.
 FulOut=F Deriv=T AODrv=T NAtomX=    13
   MMem=           3  MDisk=          16 MDiskD=          16
  W3Min=     4855070 MinDsk=     7839625 NBas6D=         505
 NBas2D=      128920    NTT=      127765    LW2=     3500000
    MDV=  4292615720 MDiskM=       42481 NBas2p=      115757
 Disk-based method using ON**2 memory for 16 occupieds at a time.
 Estimated scratch disk usage=  3523135951 words.
 IMap=   1   2   3   4   5   6   7   8   9  10  11  12  13  14  15  16  17  18  19  20
 IMap=  21  22
 Actual    scratch disk usage=  3228524495 words.
 JobTyp=1 Pass  1:  I=   7 to  22 NPSUse= 16 ParTrn=T ParDer=T DoDerP=T.
 (rs|ai) integrals will be sorted in core.
 Spin components of T(2) and E(2):
     alpha-alpha T2 =       0.4167895688D-01 E2=     -0.1298433458D+00
     alpha-beta  T2 =       0.2338655729D+00 E2=     -0.7940367766D+00
     beta-beta   T2 =       0.4167895688D-01 E2=     -0.1298433458D+00
 The integrals were generated   1 times.
 ANorm=    0.1147703571D+01
 E2 =    -0.1053723468D+01 EUMP2 =    -0.26538582607360D+03
 Leave Link  906 at Tue Sep 30 17:03:36 2025, MaxMem=  4294967296 cpu:            3318.7 elap:             208.6
 (Enter /software/sse/easybuild/prefix/software/Gaussian/16.C.01-avx2-nsc1/g16/l1002.exe)
 Minotr:  Closed shell wavefunction.
          Computing MP2/KS-MP2 derivatives.
          Using Z-Vector for PSCF gradient.
          Skipping F1 and S1 gradient terms here.
          IDoAtm=1111111111111
          Frozen-core window.
          Direct CPHF calculation.
          Differentiating once with respect to electric field.
                with respect to dipole field.
          Differentiating once with respect to nuclear coordinates.
          Using symmetry in CPHF.
          Requested convergence is 1.0D-10 RMS, and 1.0D-09 maximum.
          NewPWx=F KeepS1=T KeepF1=T KeepIn=T MapXYZ=F SortEE=F KeepMc=T.
 Two-electron integral symmetry used by symmetrizing perturbed Fock matrices.
          MDV=    4294967296 using IRadAn=       5.
          Solving linear equations separately, MaxMat=     384.
          There are     1 degrees of freedom in the 1st order CPHF.  IDoFFX=0 NUNeed=     1.
 FoFJK:  IHMeth= 1 ICntrl=       0 DoSepK=F KAlg= 0 I1Cent=           0 FoldK=F
 IRaf= 990000000 NMat=       1 IRICut=       1 DoRegI=T DoRafI=F ISym2E=-1 IDoP0=0 IntGTp=1.
 FoFCou: FMM=F IPFlag=           0 FMFlag=      100000 FMFlg1=           0
         NFxFlg=           0 DoJE=F BraDBF=F KetDBF=F FulRan=T
         wScrn=  0.000000 ICntrl=         0 IOpCl=  0 I1Cent=           0 NGrid=           0
         NMat0=    1 NMatS0=      1 NMatT0=    0 NMatD0=    1 NMtDS0=    0 NMtDT0=    0
 Petite list used in FoFCou.
 LinEq1:  Iter=  0 NonCon=     1 RMS=2.34D-03 Max=5.66D-02 NDo=     1
 AX will form     1 AO Fock derivatives at one time.
 LinEq1:  Iter=  1 NonCon=     1 RMS=5.88D-04 Max=1.13D-02 NDo=     1
 LinEq1:  Iter=  2 NonCon=     1 RMS=2.55D-04 Max=8.27D-03 NDo=     1
 LinEq1:  Iter=  3 NonCon=     1 RMS=6.66D-05 Max=1.24D-03 NDo=     1
 LinEq1:  Iter=  4 NonCon=     1 RMS=2.21D-05 Max=5.19D-04 NDo=     1
 LinEq1:  Iter=  5 NonCon=     1 RMS=5.33D-06 Max=8.80D-05 NDo=     1
 LinEq1:  Iter=  6 NonCon=     1 RMS=1.51D-06 Max=3.81D-05 NDo=     1
 LinEq1:  Iter=  7 NonCon=     1 RMS=5.65D-07 Max=1.91D-05 NDo=     1
 LinEq1:  Iter=  8 NonCon=     1 RMS=1.88D-07 Max=6.46D-06 NDo=     1
 LinEq1:  Iter=  9 NonCon=     1 RMS=9.72D-08 Max=2.86D-06 NDo=     1
 LinEq1:  Iter= 10 NonCon=     1 RMS=2.45D-08 Max=3.36D-07 NDo=     1
 LinEq1:  Iter= 11 NonCon=     1 RMS=4.20D-09 Max=6.04D-08 NDo=     1
 LinEq1:  Iter= 12 NonCon=     1 RMS=9.43D-10 Max=1.64D-08 NDo=     1
 LinEq1:  Iter= 13 NonCon=     1 RMS=3.12D-10 Max=3.34D-09 NDo=     1
 LinEq1:  Iter= 14 NonCon=     0 RMS=6.90D-11 Max=8.32D-10 NDo=     1
 Linear equations converged to 1.000D-10 1.000D-09 after    14 iterations.
 End of Minotr F.D. properties file   721 does not exist.
 End of Minotr F.D. properties file   722 does not exist.
 End of Minotr F.D. properties file   788 does not exist.
 Leave Link 1002 at Tue Sep 30 17:05:26 2025, MaxMem=  4294967296 cpu:            1731.9 elap:             109.1
 (Enter /software/sse/easybuild/prefix/software/Gaussian/16.C.01-avx2-nsc1/g16/l601.exe)
 Copying SCF densities to generalized density rwf, IOpCl= 0 IROHF=0.
 SCF density gives NOpUse=  2 NOpAll=  2.

 **********************************************************************

            Population analysis using the MP2 Density.

 **********************************************************************

 Orbital symmetries:
 BldTbl:  Degeneracy threshold= 1.00D-02
       Occupied  (A') (A') (A') (A') (A') (A') (A') (A') (A') (A')
                 (A') (A') (A') (A") (A') (A') (A') (A') (A") (A')
                 (A") (A")
       Virtual   (A') (A') (A") (A') (A') (A') (A") (A') (A") (A')
                 (A") (A') (A") (A') (A') (A') (A') (A') (A") (A")
                 (A') (A') (A') (A") (A') (A') (A') (A") (A') (A')
                 (A") (A') (A') (A') (A") (A') (A') (A') (A") (A')
                 (A') (A') (A") (A") (A') (A') (A") (A') (A') (A")
                 (A') (A') (A") (A') (A') (A") (A') (A") (A') (A")
                 (A') (A') (A') (A') (A") (A') (A") (A') (A") (A')
                 (A') (A") (A') (A') (A') (A") (A') (A') (A") (A')
                 (A') (A") (A') (A') (A') (A') (A') (A") (A') (A')
                 (A') (A") (A") (A') (A") (A') (A') (A") (A') (A")
                 (A') (A") (A') (A') (A') (A") (A') (A") (A') (A')
                 (A") (A') (A") (A') (A') (A') (A') (A") (A') (A")
                 (A") (A') (A") (A') (A') (A") (A") (A') (A') (A")
                 (A') (A') (A') (A") (A') (A") (A') (A') (A") (A')
                 (A") (A') (A') (A") (A") (A') (A') (A") (A') (A')
                 (A') (A") (A') (A") (A') (A') (A") (A') (A') (A")
                 (A") (A') (A') (A') (A") (A") (A') (A") (A') (A")
                 (A') (A') (A') (A") (A') (A') (A") (A') (A') (A")
                 (A') (A') (A") (A') (A') (A") (A") (A') (A") (A')
                 (A') (A") (A") (A') (A') (A') (A") (A') (A") (A')
                 (A") (A') (A') (A') (A") (A') (A") (A') (A') (A')
                 (A") (A") (A') (A') (A') (A") (A') (A") (A") (A')
                 (A') (A") (A') (A') (A") (A') (A') (A') (A") (A')
                 (A') (A") (A') (A") (A') (A') (A") (A') (A') (A")
                 (A") (A') (A') (A') (A') (A") (A') (A') (A") (A')
                 (A') (A') (A") (A') (A") (A') (A') (A') (A") (A')
                 (A") (A') (A") (A") (A') (A') (A") (A') (A') (A")
                 (A') (A') (A") (A") (A') (A") (A") (A') (A") (A')
                 (A') (A") (A') (A') (A") (A") (A') (A") (A') (A')
                 (A") (A') (A") (A') (A') (A') (A") (A') (A") (A')
                 (A") (A") (A') (A") (A') (A") (A') (A') (A") (A')
                 (A') (A') (A') (A') (A") (A') (A") (A') (A") (A")
                 (A') (A') (A') (A") (A") (A') (A') (A") (A') (A')
                 (A') (A") (A') (A') (A") (A') (A") (A') (A') (A")
                 (A') (A') (A") (A') (A") (A') (A") (A') (A') (A")
                 (A') (A") (A') (A') (A") (A') (A') (A") (A') (A')
                 (A") (A') (A") (A') (A") (A') (A') (A") (A') (A")
                 (A') (A") (A') (A") (A") (A') (A") (A') (A') (A")
                 (A") (A') (A") (A') (A') (A") (A') (A') (A') (A")
                 (A") (A') (A') (A') (A') (A') (A") (A') (A') (A')
                 (A') (A') (A') (A') (A') (A') (A') (A') (A') (A')
                 (A') (A') (A') (A') (A')
 The electronic state is 1-A'.
 Alpha  occ. eigenvalues --  -15.83767 -15.83220 -11.53020 -11.46053 -11.45486
 Alpha  occ. eigenvalues --  -11.44478  -1.59846  -1.43816  -1.24884  -1.18046
 Alpha  occ. eigenvalues --   -1.05308  -1.02005  -0.98076  -0.85940  -0.85467
 Alpha  occ. eigenvalues --   -0.82046  -0.81123  -0.79357  -0.76671  -0.74157
 Alpha  occ. eigenvalues --   -0.62852  -0.54238
 Alpha virt. eigenvalues --   -0.08987  -0.07274  -0.07152  -0.06797  -0.04767
 Alpha virt. eigenvalues --   -0.04674  -0.04038  -0.03717  -0.03209  -0.01699
 Alpha virt. eigenvalues --   -0.01393  -0.01086  -0.00917   0.00087   0.00489
 Alpha virt. eigenvalues --    0.01408   0.01765   0.02329   0.03015   0.03391
 Alpha virt. eigenvalues --    0.03732   0.04503   0.05171   0.05825   0.06005
 Alpha virt. eigenvalues --    0.07356   0.08049   0.08330   0.09321   0.10366
 Alpha virt. eigenvalues --    0.10717   0.11050   0.12661   0.13082   0.13544
 Alpha virt. eigenvalues --    0.15979   0.16773   0.17988   0.18203   0.18399
 Alpha virt. eigenvalues --    0.18925   0.19327   0.20013   0.20301   0.20426
 Alpha virt. eigenvalues --    0.21621   0.21892   0.22752   0.23994   0.24097
 Alpha virt. eigenvalues --    0.25026   0.26257   0.26401   0.27032   0.27494
 Alpha virt. eigenvalues --    0.27727   0.27822   0.28564   0.29880   0.30728
 Alpha virt. eigenvalues --    0.30986   0.31858   0.32062   0.32821   0.33330
 Alpha virt. eigenvalues --    0.34171   0.34548   0.34843   0.35129   0.35705
 Alpha virt. eigenvalues --    0.36715   0.37229   0.38078   0.38657   0.39474
 Alpha virt. eigenvalues --    0.39930   0.40583   0.41499   0.43981   0.45173
 Alpha virt. eigenvalues --    0.45427   0.47858   0.48061   0.49456   0.50352
 Alpha virt. eigenvalues --    0.50581   0.51059   0.53441   0.55374   0.55536
 Alpha virt. eigenvalues --    0.57656   0.57675   0.58303   0.59630   0.59801
 Alpha virt. eigenvalues --    0.60806   0.62972   0.63299   0.64498   0.66194
 Alpha virt. eigenvalues --    0.66492   0.67409   0.68141   0.71667   0.72352
 Alpha virt. eigenvalues --    0.73141   0.73335   0.74711   0.75263   0.75695
 Alpha virt. eigenvalues --    0.75972   0.77243   0.77821   0.78407   0.79117
 Alpha virt. eigenvalues --    0.79412   0.79915   0.80205   0.82148   0.82515
 Alpha virt. eigenvalues --    0.83897   0.84673   0.85080   0.85341   0.87585
 Alpha virt. eigenvalues --    0.88391   0.89358   0.89618   0.90683   0.92142
 Alpha virt. eigenvalues --    0.92369   0.93244   0.95708   0.96716   0.97400
 Alpha virt. eigenvalues --    0.98263   0.98304   0.99983   1.00885   1.02296
 Alpha virt. eigenvalues --    1.02304   1.03091   1.03499   1.03733   1.04926
 Alpha virt. eigenvalues --    1.05117   1.07697   1.09120   1.10182   1.12346
 Alpha virt. eigenvalues --    1.12663   1.12840   1.13805   1.14182   1.16415
 Alpha virt. eigenvalues --    1.17898   1.18170   1.19442   1.21325   1.22148
 Alpha virt. eigenvalues --    1.24314   1.25145   1.26950   1.27948   1.28120
 Alpha virt. eigenvalues --    1.29001   1.30871   1.31349   1.32491   1.32711
 Alpha virt. eigenvalues --    1.33474   1.34501   1.36004   1.37614   1.38176
 Alpha virt. eigenvalues --    1.40628   1.43756   1.45139   1.45439   1.46148
 Alpha virt. eigenvalues --    1.46281   1.49167   1.50131   1.51723   1.53312
 Alpha virt. eigenvalues --    1.53782   1.56128   1.56513   1.57214   1.57618
 Alpha virt. eigenvalues --    1.61784   1.61946   1.63178   1.63470   1.68228
 Alpha virt. eigenvalues --    1.69612   1.70989   1.72583   1.73393   1.74372
 Alpha virt. eigenvalues --    1.74391   1.76919   1.78488   1.80380   1.82307
 Alpha virt. eigenvalues --    1.83839   1.84510   1.86708   1.89190   1.91074
 Alpha virt. eigenvalues --    1.91789   1.95612   1.96340   1.99290   2.00608
 Alpha virt. eigenvalues --    2.01893   2.04051   2.04157   2.06726   2.06869
 Alpha virt. eigenvalues --    2.06974   2.08472   2.10156   2.13217   2.14707
 Alpha virt. eigenvalues --    2.15623   2.18736   2.21768   2.23483   2.23915
 Alpha virt. eigenvalues --    2.26625   2.28056   2.29727   2.31084   2.31438
 Alpha virt. eigenvalues --    2.35438   2.39416   2.41234   2.42072   2.42329
 Alpha virt. eigenvalues --    2.45871   2.47235   2.48841   2.51837   2.55944
 Alpha virt. eigenvalues --    2.56007   2.59440   2.66415   2.74855   2.76979
 Alpha virt. eigenvalues --    2.79674   2.88263   2.88953   2.91430   2.94737
 Alpha virt. eigenvalues --    2.98850   3.01856   3.04423   3.13975   3.16503
 Alpha virt. eigenvalues --    3.16536   3.19399   3.21432   3.28115   3.29317
 Alpha virt. eigenvalues --    3.32465   3.33554   3.34116   3.35346   3.37434
 Alpha virt. eigenvalues --    3.39731   3.41099   3.42282   3.46090   3.46829
 Alpha virt. eigenvalues --    3.50148   3.52302   3.53719   3.54367   3.57468
 Alpha virt. eigenvalues --    3.59715   3.59868   3.60787   3.62624   3.63957
 Alpha virt. eigenvalues --    3.64489   3.68501   3.69481   3.70172   3.72212
 Alpha virt. eigenvalues --    3.72352   3.75455   3.80223   3.80579   3.82707
 Alpha virt. eigenvalues --    3.84595   3.84645   3.90718   3.92205   3.92623
 Alpha virt. eigenvalues --    3.94034   3.96062   3.96822   3.97710   4.01040
 Alpha virt. eigenvalues --    4.01643   4.03860   4.03999   4.05912   4.07306
 Alpha virt. eigenvalues --    4.08869   4.12194   4.14779   4.16881   4.17209
 Alpha virt. eigenvalues --    4.18636   4.21128   4.22481   4.23257   4.27749
 Alpha virt. eigenvalues --    4.29020   4.30164   4.31881   4.35936   4.38810
 Alpha virt. eigenvalues --    4.40874   4.43901   4.45114   4.48004   4.52296
 Alpha virt. eigenvalues --    4.53491   4.54831   4.56914   4.60522   4.63404
 Alpha virt. eigenvalues --    4.65475   4.67191   4.71678   4.74491   4.75693
 Alpha virt. eigenvalues --    4.76964   4.81318   4.82641   4.85280   4.86170
 Alpha virt. eigenvalues --    4.87483   4.90030   4.93089   4.96091   4.98410
 Alpha virt. eigenvalues --    5.01170   5.02984   5.05705   5.07797   5.08306
 Alpha virt. eigenvalues --    5.11147   5.12209   5.14324   5.19796   5.25841
 Alpha virt. eigenvalues --    5.30179   5.32043   5.32680   5.33627   5.39010
 Alpha virt. eigenvalues --    5.39706   5.42225   5.47714   5.50274   5.52240
 Alpha virt. eigenvalues --    5.54292   5.55300   5.59064   5.59541   5.62210
 Alpha virt. eigenvalues --    5.65234   5.67306   5.69725   5.74583   5.77313
 Alpha virt. eigenvalues --    5.79583   5.89000   5.89713   5.91960   5.93817
 Alpha virt. eigenvalues --    5.99073   6.01452   6.06896   6.10382   6.11767
 Alpha virt. eigenvalues --    6.19199   6.19419   6.23849   6.35412   6.42704
 Alpha virt. eigenvalues --    6.44834   6.52422   6.53203   6.57534   6.63497
 Alpha virt. eigenvalues --    6.65626   6.75404   6.81072   6.90077   6.94359
 Alpha virt. eigenvalues --    7.00009   7.13640   7.45311   7.72428  16.61017
 Alpha virt. eigenvalues --   17.22416  18.18120  19.02522  19.66646  20.45579
          Condensed to atoms (all electrons):
               1          2          3          4          5          6
     1  N    7.075525  -0.012851   0.064299  -0.355144   0.172620   0.000710
     2  C   -0.012851   8.278161  -1.218065   0.016245  -0.441941  -0.026925
     3  C    0.064299  -1.218065   8.687164  -0.174409  -0.561635  -0.215062
     4  N   -0.355144   0.016245  -0.174409   7.240705   0.048063   0.119388
     5  C    0.172620  -0.441941  -0.561635   0.048063   7.709382  -0.413327
     6  C    0.000710  -0.026925  -0.215062   0.119388  -0.413327   7.004123
     7  H   -0.023635   0.057627  -0.074080  -0.006732  -0.016510  -0.000029
     8  H    0.014345  -0.221382   0.127272  -0.130821   0.003219  -0.044730
     9  H   -0.051129  -0.038500  -0.061300  -0.074734   0.108286  -0.023482
    10  H   -0.003882   0.006831  -0.003815   0.025142  -0.038281   0.181503
    11  H   -0.003882   0.006831  -0.003815   0.025142  -0.038281   0.181503
    12  H    0.001808   0.000027  -0.017103  -0.065209   0.100261   0.081868
    13  H    0.329851  -0.116994   0.012241   0.011082  -0.147032   0.009435
               7          8          9         10         11         12
     1  N   -0.023635   0.014345  -0.051129  -0.003882  -0.003882   0.001808
     2  C    0.057627  -0.221382  -0.038500   0.006831   0.006831   0.000027
     3  C   -0.074080   0.127272  -0.061300  -0.003815  -0.003815  -0.017103
     4  N   -0.006732  -0.130821  -0.074734   0.025142   0.025142  -0.065209
     5  C   -0.016510   0.003219   0.108286  -0.038281  -0.038281   0.100261
     6  C   -0.000029  -0.044730  -0.023482   0.181503   0.181503   0.081868
     7  H    0.525145  -0.054946  -0.003095   0.000490   0.000490  -0.000635
     8  H   -0.054946   0.762928  -0.006210  -0.007777  -0.007777   0.004129
     9  H   -0.003095  -0.006210   0.518331  -0.003640  -0.003640   0.006542
    10  H    0.000490  -0.007777  -0.003640   0.492957   0.021501  -0.029672
    11  H    0.000490  -0.007777  -0.003640   0.021501   0.492957  -0.029672
    12  H   -0.000635   0.004129   0.006542  -0.029672  -0.029672   0.562638
    13  H    0.003892   0.000450  -0.008841  -0.000005  -0.000005   0.001909
              13
     1  N    0.329851
     2  C   -0.116994
     3  C    0.012241
     4  N    0.011082
     5  C   -0.147032
     6  C    0.009435
     7  H    0.003892
     8  H    0.000450
     9  H   -0.008841
    10  H   -0.000005
    11  H   -0.000005
    12  H    0.001909
    13  H    0.721241
 Mulliken charges:
               1
     1  N   -0.208634
     2  C   -0.289065
     3  C   -0.561693
     4  N    0.321280
     5  C   -0.484824
     6  C   -0.854974
     7  H    0.592016
     8  H    0.561300
     9  H    0.641413
    10  H    0.358648
    11  H    0.358648
    12  H    0.383111
    13  H    0.182776
 Sum of Mulliken charges =   1.00000
 Mulliken charges with hydrogens summed into heavy atoms:
               1
     1  N   -0.025858
     2  C    0.302951
     3  C   -0.000393
     4  N    0.321280
     5  C    0.156588
     6  C    0.245431
 DipInt: DoE/N= T F RetVal/Mat= T F Init=T NMatP=  1 IDeriv=0 Min/MaxMlt=  0  4
 Entering OneElI...
 OneElI was handed  4294318234 working-precision words.
 Multipole integrals L=0 to 4 MinM= 0 MaxM= 0.
 Requested accuracy = 0.1000D-12
 ShPair: Thresh= 1.00D-13 NBox=     0 BxSize= 0.00D+00 RnKept= 1.00D+01
         NSMCal=                10878 NSMKep=               10766
 PrmmSu-InSpLW:  IPartL=    0 NPrtUS=    1 NPrtUL=    1 DoSpLW=F IThBeg=    0 IThEnd=    0 NThAct=    1.
 PrSmSu:  IncTry=   512 NBBP=          10766 NTPThr=   100 NPartT=    1 Incr=         107 LDynOK=F GPUOK=F.
 PrsmSu:  NPrtUS=   1 ThrOK=F IAlg=2 LenDen=           0 ISkipM=0 DoSpLW=F IThBeg=    0 IThEnd=    0.
 Prism:   IPart=     0 DynPar=F LinDyn=F Incr=         107.
 PRISM was handed  4293575403 working-precision words and 10766 shell-pairs
 IPart=  0 NShTot=       10766 NBatch=         108 AvBLen=        99.7
 PrsmSu-ThDecC:  IPartSL=    0    0 NPrtUSL=    1    1 IThBeg=    0 IThEnd=    0 CPU=   -1 GPU=   -1 NThAct=    1.
 PrSmSu:  NxtVal=            108.
 Electronic moments (au):
        -44.00000000          0.45762441         -0.23557492         -0.00000000
       -138.18745769       -311.25143929        -32.16927930         -0.92927694
          0.00000000         -0.00000000         15.80485160       -286.62885937
         -0.00000000         10.94392433         76.92379323         -0.00000000
          6.09133624        -21.45311497         -0.00000000          0.00000000
      -1182.85262368      -4993.79392341       -125.34920561        -41.49595261
          0.00000000        -63.66178710         -0.00000000          0.00000000
         -0.00000000       -684.61989733       -110.93746589       -310.97625581
         -0.00000000          0.00000000         14.53402451
 Electronic spatial extent (au):  <R**2>=            481.6082
 DipInt: DoE/N= F T RetVal/Mat= T F Init=T NMatP=  1 IDeriv=0 Min/MaxMlt=  0  4
 Nuclear    moments (au):
         45.00000000          0.00000000         -0.00000000          0.00000000
        120.86058395        299.52636432          5.58820724         -0.42272287
         -0.00000000          0.00000000         -7.38328376        275.33280104
          0.00000000         -5.11508872        -83.89760316          0.00000000
         -5.36316701         25.87662424          0.00000000         -0.00000000
        820.03647983       4214.66914535         15.61403006         26.38053792
         -0.00000000         37.01618237          0.00000000         -0.00000000
          0.00000000        494.33869399          5.14718928        119.82370265
          0.00000000         -0.00000000        -24.83455813
 Total      moments (au):
          1.00000000          0.45762441         -0.23557492         -0.00000000
        -17.32687373        -11.72507497        -26.58107206         -1.35199981
          0.00000000         -0.00000000          8.42156784        -11.29605834
         -0.00000000          5.82883561         -6.97380993         -0.00000000
          0.72816923          4.42350927          0.00000000          0.00000000
       -362.81614385       -779.12477806       -109.73517555        -15.11541469
          0.00000000        -26.64560474          0.00000000          0.00000000
         -0.00000000       -190.28120335       -105.79027661       -191.15255315
         -0.00000000          0.00000000        -10.30053362
 Traceless Quadrup. (au):
          1.21746652          6.81926528         -8.03673181         -1.35199981
          0.00000000         -0.00000000
 Charge=              1.0000 electrons
 Dipole moment (field-independent basis, Debye):
    X=              1.1632    Y=             -0.5988    Z=             -0.0000  Tot=              1.3082
 Quadrupole moment (field-independent basis, Debye-Ang):
   XX=            -23.3052   YY=            -15.7706   ZZ=            -35.7525
   XY=             -1.8185   XZ=              0.0000   YZ=             -0.0000
 Traceless Quadrupole moment (field-independent basis, Debye-Ang):
   XX=              1.6375   YY=              9.1721   ZZ=            -10.8097
   XY=             -1.8185   XZ=              0.0000   YZ=             -0.0000
 Octapole moment (field-independent basis, Debye-Ang**2):
  XXX=              5.9941  YYY=             -8.0401  ZZZ=             -0.0000  XYY=              4.1487
  XXY=             -4.9637  XXZ=             -0.0000  XZZ=              0.5183  YZZ=              3.1485
  YYZ=              0.0000  XYZ=              0.0000
 Hexadecapole moment (field-independent basis, Debye-Ang**3):
 XXXX=           -136.6540 YYYY=           -293.4558 ZZZZ=            -41.3315 XXXY=             -5.6932
 XXXZ=              0.0000 YYYX=            -10.0360 YYYZ=              0.0000 ZZZX=              0.0000
 ZZZY=             -0.0000 XXYY=            -71.6690 XXZZ=            -39.8457 YYZZ=            -71.9972
 XXYZ=             -0.0000 YYXZ=              0.0000 ZZXY=             -3.8797
 N-N= 2.393263925331D+02 E-N=-1.086602306175D+03  KE= 2.654892710095D+02
 Symmetry A'   KE= 2.547908629675D+02
 Symmetry A"   KE= 1.069840804193D+01
 SetAtRh:  ITypeU=  23 NETotI=      -1 ICharg=  0 NETot=      45.
 StAtR1:  I=    1 I1=    1 IA=  7 C=   7.0 OKShel=TTT
                                                  SSP
                                                  223
 StAtR1:  I=    2 I1=    2 IA=  6 C=   6.0 OKShel=TTT
                                                  SSP
                                                  222
 StAtR1:  I=    3 I1=    3 IA=  6 C=   6.0 OKShel=TTT
                                                  SSP
                                                  222
 StAtR1:  I=    4 I1=    4 IA=  7 C=   7.0 OKShel=TTT
                                                  SSP
                                                  223
 StAtR1:  I=    5 I1=    5 IA=  6 C=   6.0 OKShel=TTT
                                                  SSP
                                                  222
 StAtR1:  I=    6 I1=    6 IA=  6 C=   6.0 OKShel=TTT
                                                  SSP
                                                  222
 StAtR1:  I=    7 I1=    7 IA=  1 C=   1.0 OKShel=T
                                                  S
                                                  1
 StAtR1:  I=    8 I1=    8 IA=  1 C=   1.0 OKShel=T
                                                  S
                                                  1
 StAtR1:  I=    9 I1=    9 IA=  1 C=   1.0 OKShel=T
                                                  S
                                                  1
 StAtR1:  I=   10 I1=   10 IA=  1 C=   1.0 OKShel=T
                                                  S
                                                  1
 StAtR1:  I=   11 I1=   11 IA=  1 C=   1.0 OKShel=T
                                                  S
                                                  1
 StAtR1:  I=   12 I1=   12 IA=  1 C=   1.0 OKShel=T
                                                  S
                                                  1
 StAtR1:  I=   13 I1=   13 IA=  1 C=   1.0 OKShel=T
                                                  S
                                                  1
          I=    1 IA=  7 I1=    1 NAtG=22 NE=   7.000 C=   7.000 Err= 6.08D-13
          I=    2 IA=  6 I1=    2 NAtG=23 NE=   6.000 C=   6.000 Err= 1.75D-11
          I=    3 IA=  6 I1=    3 NAtG=23 NE=   6.000 C=   6.000 Err= 1.75D-11
          I=    4 IA=  7 I1=    4 NAtG=22 NE=   7.000 C=   7.000 Err= 6.08D-13
          I=    5 IA=  6 I1=    5 NAtG=23 NE=   6.000 C=   6.000 Err= 1.75D-11
          I=    6 IA=  6 I1=    6 NAtG=23 NE=   6.000 C=   6.000 Err= 1.75D-11
          I=    7 IA=  1 I1=    7 NAtG=20 NE=   1.000 C=   1.000 Err= 2.80D-12
          I=    8 IA=  1 I1=    8 NAtG=20 NE=   1.000 C=   1.000 Err= 2.80D-12
          I=    9 IA=  1 I1=    9 NAtG=20 NE=   1.000 C=   1.000 Err= 2.80D-12
          I=   10 IA=  1 I1=   10 NAtG=20 NE=   1.000 C=   1.000 Err= 2.80D-12
          I=   11 IA=  1 I1=   11 NAtG=20 NE=   1.000 C=   1.000 Err= 2.80D-12
          I=   12 IA=  1 I1=   12 NAtG=20 NE=   1.000 C=   1.000 Err= 2.80D-12
          I=   13 IA=  1 I1=   13 NAtG=20 NE=   1.000 C=   1.000 Err= 2.80D-12
 Pruned (  99, 590) grid will be used in numerical quadrature.
 IPart=  0 IRanGd=          0 ScrnBf=T ScrnGd=T RCrit=4.00D+00 DoMicB=T.
 CutRad = 1000.00    CtRdIn =    0.00    XCrit =  15.00   ICut = 0
 Pruned (  99, 590) grid will be used in numerical quadrature.
 IPart=  1 IRanGd=          0 ScrnBf=T ScrnGd=T RCrit=4.00D+00 DoMicB=T.
 Pruned (  99, 590) grid will be used in numerical quadrature.
 CutRad = 1000.00    CtRdIn =    0.00    XCrit =  15.00   ICut = 0
 Pruned (  99, 590) grid will be used in numerical quadrature.
 IPart=  4 IRanGd=          0 ScrnBf=T ScrnGd=T RCrit=4.00D+00 DoMicB=T.
 CutRad = 1000.00    CtRdIn =    0.00    XCrit =  15.00   ICut = 0
 IPart= 10 IRanGd=          0 ScrnBf=T ScrnGd=T RCrit=4.00D+00 DoMicB=T.
 Pruned (  99, 590) grid will be used in numerical quadrature.
 CutRad = 1000.00    CtRdIn =    0.00    XCrit =  15.00   ICut = 0
 Pruned (  99, 590) grid will be used in numerical quadrature.
 Pruned (  99, 590) grid will be used in numerical quadrature.
 IPart=  2 IRanGd=          0 ScrnBf=T ScrnGd=T RCrit=4.00D+00 DoMicB=T.
 Pruned (  99, 590) grid will be used in numerical quadrature.
 IPart=  8 IRanGd=          0 ScrnBf=T ScrnGd=T RCrit=4.00D+00 DoMicB=T.
 CutRad = 1000.00    CtRdIn =    0.00    XCrit =  15.00   ICut = 0
 IPart= 14 IRanGd=          0 ScrnBf=T ScrnGd=T RCrit=4.00D+00 DoMicB=T.
 Pruned (  99, 590) grid will be used in numerical quadrature.
 IPart=  5 IRanGd=          0 ScrnBf=T ScrnGd=T RCrit=4.00D+00 DoMicB=T.
 CutRad = 1000.00    CtRdIn =    0.00    XCrit =  15.00   ICut = 0
 IPart=  9 IRanGd=          0 ScrnBf=T ScrnGd=T RCrit=4.00D+00 DoMicB=T.
 CutRad = 1000.00    CtRdIn =    0.00    XCrit =  15.00   ICut = 0
 Pruned (  99, 590) grid will be used in numerical quadrature.
 Pruned (  99, 590) grid will be used in numerical quadrature.
 IPart= 13 IRanGd=          0 ScrnBf=T ScrnGd=T RCrit=4.00D+00 DoMicB=T.
 CutRad = 1000.00    CtRdIn =    0.00    XCrit =  15.00   ICut = 0
 IPart=  3 IRanGd=          0 ScrnBf=T ScrnGd=T RCrit=4.00D+00 DoMicB=T.
 CutRad = 1000.00    CtRdIn =    0.00    XCrit =  15.00   ICut = 0
 Pruned (  99, 590) grid will be used in numerical quadrature.
 Pruned (  99, 590) grid will be used in numerical quadrature.
 CutRad = 1000.00    CtRdIn =    0.00    XCrit =  15.00   ICut = 0
 IPart=  6 IRanGd=          0 ScrnBf=T ScrnGd=T RCrit=4.00D+00 DoMicB=T.
 Pruned (  99, 590) grid will be used in numerical quadrature.
 Pruned (  99, 590) grid will be used in numerical quadrature.
 IPart= 12 IRanGd=          0 ScrnBf=T ScrnGd=T RCrit=4.00D+00 DoMicB=T.
 Pruned (  99, 590) grid will be used in numerical quadrature.
 IPart=  7 IRanGd=          0 ScrnBf=T ScrnGd=T RCrit=4.00D+00 DoMicB=T.
 CutRad = 1000.00    CtRdIn =    0.00    XCrit =  15.00   ICut = 0
 IPart= 15 IRanGd=          0 ScrnBf=T ScrnGd=T RCrit=4.00D+00 DoMicB=T.
 CutRad = 1000.00    CtRdIn =    0.00    XCrit =  15.00   ICut = 0
 CutRad = 1000.00    CtRdIn =    0.00    XCrit =  15.00   ICut = 0
 CutRad = 1000.00    CtRdIn =    0.00    XCrit =  15.00   ICut = 0
 IPart=  0 Atom number   1 atomic number  7 has       23718 grid points.
 CutRad = 1000.00    CtRdIn =    0.00    XCrit =  15.00   ICut = 0
 Pruned (  99, 590) grid will be used in numerical quadrature.
 IPart=  0 Atom   1 batch    1 overlaps   13 atoms,   131 shells and    13 DB shells.   NGrid=      2408
 IPart= 11 IRanGd=          0 ScrnBf=T ScrnGd=T RCrit=4.00D+00 DoMicB=T.
 CutRad = 1000.00    CtRdIn =    0.00    XCrit =  15.00   ICut = 0
 Symmetry reduced    86 angular points to    86 for atom    1.
 Pruned (  99, 590) grid will be used in numerical quadrature.
 Pruned (  99, 590) grid will be used in numerical quadrature.
 IPart=  1 Atom number   1 atomic number  7 has       23718 grid points.
 IPart=  4 Atom number   1 atomic number  7 has       23718 grid points.
 IPart=  1 Atom   1 batch    2 overlaps   13 atoms,   133 shells and    13 DB shells.   NGrid=      2522
 Pruned (  99, 590) grid will be used in numerical quadrature.
 IPart=  4 Atom   1 batch    3 overlaps   13 atoms,   137 shells and    13 DB shells.   NGrid=      2114
 Symmetry reduced   194 angular points to   194 for atom    1.
 IPart= 10 Atom number   1 atomic number  7 has       23718 grid points.
 Symmetry reduced   302 angular points to   302 for atom    1.
 IPart= 10 Atom   1 batch    4 overlaps   13 atoms,   137 shells and    13 DB shells.   NGrid=      1180
 Symmetry reduced   590 angular points to   590 for atom    1.
 Pruned (  99, 590) grid will be used in numerical quadrature.
 IPart=  8 Atom number   1 atomic number  7 has       23718 grid points.
 IPart=  8 Atom   1 batch    5 overlaps   13 atoms,   138 shells and    13 DB shells.   NGrid=      1180
 Pruned (  99, 590) grid will be used in numerical quadrature.
 Symmetry reduced   590 angular points to   590 for atom    1.
 IPart= 14 Atom number   1 atomic number  7 has       23718 grid points.
 IPart= 14 Atom   1 batch    6 overlaps   13 atoms,   140 shells and    13 DB shells.   NGrid=      1180
 Symmetry reduced   590 angular points to   590 for atom    1.
 Pruned (  99, 590) grid will be used in numerical quadrature.
 Pruned (  99, 590) grid will be used in numerical quadrature.
 IPart=  2 Atom number   1 atomic number  7 has       23718 grid points.
 IPart=  3 Atom number   1 atomic number  7 has       23718 grid points.
 IPart=  2 Atom   1 batch    7 overlaps   13 atoms,   141 shells and    13 DB shells.   NGrid=      1180
 IPart=  3 Atom   1 batch    8 overlaps   13 atoms,   144 shells and    13 DB shells.   NGrid=      1180
 Pruned (  99, 590) grid will be used in numerical quadrature.
 Symmetry reduced   590 angular points to   590 for atom    1.
 IPart= 13 Atom number   1 atomic number  7 has       23718 grid points.
 Symmetry reduced   590 angular points to   590 for atom    1.
 IPart= 13 Atom   1 batch    9 overlaps   13 atoms,   146 shells and    13 DB shells.   NGrid=      1180
 Symmetry reduced   590 angular points to   590 for atom    1.
 Pruned (  99, 590) grid will be used in numerical quadrature.
 Pruned (  99, 590) grid will be used in numerical quadrature.
 IPart= 15 Atom number   1 atomic number  7 has       23718 grid points.
 IPart=  7 Atom number   1 atomic number  7 has       23718 grid points.
 IPart= 15 Atom   1 batch   10 overlaps   13 atoms,   146 shells and    13 DB shells.   NGrid=      1180
 Pruned (  99, 590) grid will be used in numerical quadrature.
 Symmetry reduced   590 angular points to   590 for atom    1.
 IPart=  7 Atom   1 batch   11 overlaps   13 atoms,   147 shells and    13 DB shells.   NGrid=      1180
 Pruned (  99, 590) grid will be used in numerical quadrature.
 Pruned (  99, 590) grid will be used in numerical quadrature.
 Pruned (  99, 590) grid will be used in numerical quadrature.
 IPart= 11 Atom number   1 atomic number  7 has       23718 grid points.
 IPart=  9 Atom number   1 atomic number  7 has       23718 grid points.
 IPart= 12 Atom number   1 atomic number  7 has       23718 grid points.
 IPart= 11 Atom   1 batch   16 overlaps   13 atoms,   140 shells and    13 DB shells.   NGrid=       604
 IPart= 12 Atom   1 batch   14 overlaps   13 atoms,   146 shells and    13 DB shells.   NGrid=       604
 IPart=  9 Atom   1 batch   12 overlaps   13 atoms,   146 shells and    13 DB shells.   NGrid=       590
 Symmetry reduced   590 angular points to   590 for atom    1.
 Pruned (  99, 590) grid will be used in numerical quadrature.
 Symmetry reduced   302 angular points to   302 for atom    1.
 Symmetry reduced   590 angular points to   590 for atom    1.
 Symmetry reduced   302 angular points to   302 for atom    1.
 IPart=  5 Atom number   1 atomic number  7 has       23718 grid points.
 IPart=  6 Atom number   1 atomic number  7 has       23718 grid points.
 IPart=  5 Atom   1 batch   15 overlaps   13 atoms,   144 shells and    13 DB shells.   NGrid=       604
 IPart=  6 Atom   1 batch   13 overlaps   13 atoms,   146 shells and    13 DB shells.   NGrid=       604
 Symmetry reduced   302 angular points to   302 for atom    1.
 Symmetry reduced   302 angular points to   302 for atom    1.
 IPart= 11 Atom   1 batch   17 overlaps   13 atoms,   136 shells and    13 DB shells.   NGrid=       604
 IPart=  5 Atom   1 batch   18 overlaps   13 atoms,   117 shells and    13 DB shells.   NGrid=       604
 IPart= 12 Atom   1 batch   19 overlaps   13 atoms,    95 shells and    13 DB shells.   NGrid=       604
 IPart=  6 Atom   1 batch   20 overlaps   13 atoms,    66 shells and    12 DB shells.   NGrid=       604
 IPart=  9 Atom   1 batch   21 overlaps   13 atoms,    38 shells and     8 DB shells.   NGrid=       604
 Symmetry reduced   302 angular points to   302 for atom    1.
 IPart=  9 Atom   1 batch   22 overlaps   13 atoms,    16 shells and     0 DB shells.   NGrid=       604
 IPart=  6 Atom   1 batch   23 overlaps   13 atoms,     6 shells and     0 DB shells.   NGrid=       604
 Pruned (  99, 590) grid will be used in numerical quadrature.
 IPart= 12 Atom number   2 atomic number  6 has       23114 grid points.
 IPart= 12 Atom   2 batch    1 overlaps   13 atoms,   130 shells and    13 DB shells.   NGrid=      2408
 Symmetry reduced    86 angular points to    86 for atom    2.
 Pruned (  99, 590) grid will be used in numerical quadrature.
 IPart=  6 Atom number   2 atomic number  6 has       23114 grid points.
 Pruned (  99, 590) grid will be used in numerical quadrature.
 IPart=  6 Atom   2 batch    2 overlaps   13 atoms,   134 shells and    13 DB shells.   NGrid=      2522
 IPart= 11 Atom number   2 atomic number  6 has       23114 grid points.
 Symmetry reduced   194 angular points to   194 for atom    2.
 IPart= 11 Atom   2 batch    3 overlaps   13 atoms,   136 shells and    13 DB shells.   NGrid=      2114
 Symmetry reduced   302 angular points to   302 for atom    2.
 Pruned (  99, 590) grid will be used in numerical quadrature.
 Pruned (  99, 590) grid will be used in numerical quadrature.
 IPart=  9 Atom number   2 atomic number  6 has       23114 grid points.
 IPart=  5 Atom number   2 atomic number  6 has       23114 grid points.
 IPart=  9 Atom   2 batch    4 overlaps   13 atoms,   139 shells and    13 DB shells.   NGrid=      1180
 IPart=  5 Atom   2 batch    5 overlaps   13 atoms,   139 shells and    13 DB shells.   NGrid=      1180
 Symmetry reduced   590 angular points to   590 for atom    2.
 Symmetry reduced   590 angular points to   590 for atom    2.
 Pruned (  99, 590) grid will be used in numerical quadrature.
 IPart= 10 Atom number   2 atomic number  6 has       23114 grid points.
 IPart= 10 Atom   2 batch    6 overlaps   13 atoms,   140 shells and    13 DB shells.   NGrid=      1180
 Symmetry reduced   590 angular points to   590 for atom    2.
 Pruned (  99, 590) grid will be used in numerical quadrature.
 IPart= 14 Atom number   2 atomic number  6 has       23114 grid points.
 IPart= 14 Atom   2 batch    7 overlaps   13 atoms,   142 shells and    13 DB shells.   NGrid=      1180
 Symmetry reduced   590 angular points to   590 for atom    2.
 Pruned (  99, 590) grid will be used in numerical quadrature.
 IPart=  8 Atom number   2 atomic number  6 has       23114 grid points.
 IPart=  8 Atom   2 batch    8 overlaps   13 atoms,   145 shells and    13 DB shells.   NGrid=      1180
 Symmetry reduced   590 angular points to   590 for atom    2.
 Pruned (  99, 590) grid will be used in numerical quadrature.
 IPart=  7 Atom number   2 atomic number  6 has       23114 grid points.
 IPart=  7 Atom   2 batch    9 overlaps   13 atoms,   146 shells and    13 DB shells.   NGrid=      1180
 Symmetry reduced   590 angular points to   590 for atom    2.
 Pruned (  99, 590) grid will be used in numerical quadrature.
 IPart=  2 Atom number   2 atomic number  6 has       23114 grid points.
 IPart=  2 Atom   2 batch   10 overlaps   13 atoms,   146 shells and    13 DB shells.   NGrid=      1180
 Symmetry reduced   590 angular points to   590 for atom    2.
 Pruned (  99, 590) grid will be used in numerical quadrature.
 IPart=  3 Atom number   2 atomic number  6 has       23114 grid points.
 IPart=  3 Atom   2 batch   11 overlaps   13 atoms,   146 shells and    13 DB shells.   NGrid=      1180
 Symmetry reduced   590 angular points to   590 for atom    2.
 Pruned (  99, 590) grid will be used in numerical quadrature.
 IPart= 15 Atom number   2 atomic number  6 has       23114 grid points.
 IPart= 15 Atom   2 batch   12 overlaps   13 atoms,   146 shells and    13 DB shells.   NGrid=       590
 Symmetry reduced   590 angular points to   590 for atom    2.
 Pruned (  99, 590) grid will be used in numerical quadrature.
 IPart= 13 Atom number   2 atomic number  6 has       23114 grid points.
 IPart= 13 Atom   2 batch   13 overlaps   13 atoms,   146 shells and    13 DB shells.   NGrid=       604
 Symmetry reduced   302 angular points to   302 for atom    2.
 IPart= 15 Atom   2 batch   14 overlaps   13 atoms,   146 shells and    13 DB shells.   NGrid=       604
 Symmetry reduced   302 angular points to   302 for atom    2.
 IPart=  9 Atom   2 batch   15 overlaps   13 atoms,   141 shells and    13 DB shells.   NGrid=       604
 Symmetry reduced   302 angular points to   302 for atom    2.
 IPart=  5 Atom   2 batch   16 overlaps   13 atoms,   134 shells and    13 DB shells.   NGrid=       604
 Symmetry reduced   302 angular points to   302 for atom    2.
 IPart= 13 Atom   2 batch   17 overlaps   13 atoms,   122 shells and    13 DB shells.   NGrid=       604
 Pruned (  99, 590) grid will be used in numerical quadrature.
 IPart=  4 Atom number   2 atomic number  6 has       23114 grid points.
 IPart=  4 Atom   2 batch   18 overlaps   13 atoms,   103 shells and    13 DB shells.   NGrid=       604
 Symmetry reduced   302 angular points to   302 for atom    2.
 Pruned (  99, 590) grid will be used in numerical quadrature.
 IPart=  0 Atom number   2 atomic number  6 has       23114 grid points.
 IPart=  0 Atom   2 batch   19 overlaps   13 atoms,    71 shells and    13 DB shells.   NGrid=       604
 Symmetry reduced   302 angular points to   302 for atom    2.
 IPart= 13 Atom   2 batch   20 overlaps   13 atoms,    46 shells and     9 DB shells.   NGrid=       604
 IPart=  4 Atom   2 batch   21 overlaps   13 atoms,    26 shells and     0 DB shells.   NGrid=       604
 IPart=  0 Atom   2 batch   22 overlaps   13 atoms,     9 shells and     0 DB shells.   NGrid=       604
 Pruned (  99, 590) grid will be used in numerical quadrature.
 IPart= 13 Atom number   3 atomic number  6 has       23114 grid points.
 IPart= 13 Atom   3 batch    1 overlaps   13 atoms,   139 shells and    13 DB shells.   NGrid=      2408
 Symmetry reduced    86 angular points to    86 for atom    3.
 Pruned (  99, 590) grid will be used in numerical quadrature.
 IPart=  0 Atom number   3 atomic number  6 has       23114 grid points.
 IPart=  0 Atom   3 batch    2 overlaps   13 atoms,   143 shells and    13 DB shells.   NGrid=      2522
 Symmetry reduced   194 angular points to   194 for atom    3.
 Pruned (  99, 590) grid will be used in numerical quadrature.
 IPart=  4 Atom number   3 atomic number  6 has       23114 grid points.
 IPart=  4 Atom   3 batch    3 overlaps   13 atoms,   145 shells and    13 DB shells.   NGrid=      2114
 Symmetry reduced   302 angular points to   302 for atom    3.
 Pruned (  99, 590) grid will be used in numerical quadrature.
 IPart=  5 Atom number   3 atomic number  6 has       23114 grid points.
 IPart=  5 Atom   3 batch    4 overlaps   13 atoms,   146 shells and    13 DB shells.   NGrid=      1180
 Symmetry reduced   590 angular points to   590 for atom    3.
 Pruned (  99, 590) grid will be used in numerical quadrature.
 IPart=  9 Atom number   3 atomic number  6 has       23114 grid points.
 IPart=  9 Atom   3 batch    5 overlaps   13 atoms,   147 shells and    13 DB shells.   NGrid=      1180
 Symmetry reduced   590 angular points to   590 for atom    3.
 Pruned (  99, 590) grid will be used in numerical quadrature.
 IPart=  1 Atom number   2 atomic number  6 has       23114 grid points.
 Pruned (  99, 590) grid will be used in numerical quadrature.
 IPart=  1 Atom number   3 atomic number  6 has       23114 grid points.
 IPart=  1 Atom   3 batch    6 overlaps   13 atoms,   147 shells and    13 DB shells.   NGrid=      1180
 Symmetry reduced   590 angular points to   590 for atom    3.
 Pruned (  99, 590) grid will be used in numerical quadrature.
 IPart= 15 Atom number   3 atomic number  6 has       23114 grid points.
 IPart= 15 Atom   3 batch    7 overlaps   13 atoms,   147 shells and    13 DB shells.   NGrid=      1180
 Symmetry reduced   590 angular points to   590 for atom    3.
 Pruned (  99, 590) grid will be used in numerical quadrature.
 IPart= 10 Atom number   3 atomic number  6 has       23114 grid points.
 IPart= 10 Atom   3 batch    8 overlaps   13 atoms,   147 shells and    13 DB shells.   NGrid=      1180
 Symmetry reduced   590 angular points to   590 for atom    3.
 Pruned (  99, 590) grid will be used in numerical quadrature.
 IPart=  3 Atom number   3 atomic number  6 has       23114 grid points.
 IPart=  3 Atom   3 batch    9 overlaps   13 atoms,   147 shells and    13 DB shells.   NGrid=      1180
 Symmetry reduced   590 angular points to   590 for atom    3.
 Pruned (  99, 590) grid will be used in numerical quadrature.
 IPart= 14 Atom number   3 atomic number  6 has       23114 grid points.
 IPart= 14 Atom   3 batch   10 overlaps   13 atoms,   147 shells and    13 DB shells.   NGrid=      1180
 Symmetry reduced   590 angular points to   590 for atom    3.
 Pruned (  99, 590) grid will be used in numerical quadrature.
 IPart=  8 Atom number   3 atomic number  6 has       23114 grid points.
 IPart=  8 Atom   3 batch   11 overlaps   13 atoms,   146 shells and    13 DB shells.   NGrid=      1180
 Symmetry reduced   590 angular points to   590 for atom    3.
 Pruned (  99, 590) grid will be used in numerical quadrature.
 IPart=  2 Atom number   3 atomic number  6 has       23114 grid points.
 IPart=  2 Atom   3 batch   12 overlaps   13 atoms,   146 shells and    13 DB shells.   NGrid=       590
 Symmetry reduced   590 angular points to   590 for atom    3.
 Pruned (  99, 590) grid will be used in numerical quadrature.
 IPart=  7 Atom number   3 atomic number  6 has       23114 grid points.
 IPart=  7 Atom   3 batch   13 overlaps   13 atoms,   146 shells and    13 DB shells.   NGrid=       604
 Symmetry reduced   302 angular points to   302 for atom    3.
 Pruned (  99, 590) grid will be used in numerical quadrature.
 IPart= 11 Atom number   3 atomic number  6 has       23114 grid points.
[...]
 3530 Fit       0.117307
 3531 Fit       0.116600
 3532 Fit       0.116702
 3533 Fit       0.117603
 3534 Fit       0.119364
 3535 Fit       0.122123
 3536 Fit       0.126111
 3537 Fit       0.131677
 3538 Fit       0.125835
 3539 Fit       0.121599
 3540 Fit       0.118738
 3541 Fit       0.116955
 3542 Fit       0.116059
 3543 Fit       0.115945
 3544 Fit       0.116578
 3545 Fit       0.117997
 3546 Fit       0.120311
 3547 Fit       0.123723
 3548 Fit       0.128563
 3549 Fit       0.135343
 3550 Fit       0.126079
 3551 Fit       0.121718
 3552 Fit       0.118756
 3553 Fit       0.116860
 3554 Fit       0.115824
 3555 Fit       0.115529
 3556 Fit       0.115926
 3557 Fit       0.117028
 3558 Fit       0.118914
 3559 Fit       0.121740
 3560 Fit       0.125765
 3561 Fit       0.131406
 3562 Fit       0.139333
 3563 Fit       0.123764
 3564 Fit       0.120143
 3565 Fit       0.117719
 3566 Fit       0.116227
 3567 Fit       0.115507
 3568 Fit       0.115470
 3569 Fit       0.116093
 3570 Fit       0.117408
 3571 Fit       0.119511
 3572 Fit       0.122579
 3573 Fit       0.126896
 3574 Fit       0.132918
 3575 Fit       0.141393
 3576 Fit       0.126079
 3577 Fit       0.121718
 3578 Fit       0.118756
 3579 Fit       0.116860
 3580 Fit       0.115824
 3581 Fit       0.115529
 3582 Fit       0.115926
 3583 Fit       0.117028
 3584 Fit       0.118914
 3585 Fit       0.121740
 3586 Fit       0.125765
 3587 Fit       0.131406
 3588 Fit       0.139333
 3589 Fit       0.125835
 3590 Fit       0.121599
 3591 Fit       0.118738
 3592 Fit       0.116955
 3593 Fit       0.116059
 3594 Fit       0.115945
 3595 Fit       0.116578
 3596 Fit       0.117997
 3597 Fit       0.120311
 3598 Fit       0.123723
 3599 Fit       0.128563
 3600 Fit       0.135343
 3601 Fit       0.121537
 3602 Fit       0.118903
 3603 Fit       0.117307
 3604 Fit       0.116600
 3605 Fit       0.116702
 3606 Fit       0.117603
 3607 Fit       0.119364
 3608 Fit       0.122123
 3609 Fit       0.126111
 3610 Fit       0.131677
 3611 Fit       0.121526
 3612 Fit       0.119132
 3613 Fit       0.117831
 3614 Fit       0.117516
 3615 Fit       0.118149
 3616 Fit       0.119768
 3617 Fit       0.122499
 3618 Fit       0.126555
 3619 Fit       0.132227
 3620 Fit       0.121803
 3621 Fit       0.119758
 3622 Fit       0.118876
 3623 Fit       0.119114
 3624 Fit       0.120490
 3625 Fit       0.123098
 3626 Fit       0.127092
 3627 Fit       0.120615
 3628 Fit       0.121165
 3629 Fit       0.123203
 3630 Fit       0.126391
 3631 Fit       0.123756
 3632 Fit       0.122817
 3633 Fit       0.135002
 3634 Fit       0.128976
 3635 Fit       0.124854
 3636 Fit       0.122296
 3637 Fit       0.121086
 3638 Fit       0.121129
 3639 Fit       0.122418
 3640 Fit       0.130605
 3641 Fit       0.125765
 3642 Fit       0.122500
 3643 Fit       0.120505
 3644 Fit       0.119616
 3645 Fit       0.119783
 3646 Fit       0.121046
 3647 Fit       0.123515
 3648 Fit       0.132362
 3649 Fit       0.127050
 3650 Fit       0.123296
 3651 Fit       0.120747
 3652 Fit       0.119203
 3653 Fit       0.118561
 3654 Fit       0.118806
 3655 Fit       0.119998
 3656 Fit       0.122276
 3657 Fit       0.130137
 3658 Fit       0.125415
 3659 Fit       0.122050
 3660 Fit       0.119765
 3661 Fit       0.118393
 3662 Fit       0.117858
 3663 Fit       0.118159
 3664 Fit       0.119373
 3665 Fit       0.121663
 3666 Fit       0.125301
 3667 Fit       0.133856
 3668 Fit       0.128247
 3669 Fit       0.124114
 3670 Fit       0.121138
 3671 Fit       0.119109
 3672 Fit       0.117899
 3673 Fit       0.117453
 3674 Fit       0.117778
 3675 Fit       0.118955
 3676 Fit       0.121145
 3677 Fit       0.124623
 3678 Fit       0.129856
 3679 Fit       0.125358
 3680 Fit       0.122054
 3681 Fit       0.119718
 3682 Fit       0.118205
 3683 Fit       0.117435
 3684 Fit       0.117390
 3685 Fit       0.118114
 3686 Fit       0.119722
 3687 Fit       0.122418
 3688 Fit       0.126541
 3689 Fit       0.133856
 3690 Fit       0.128247
 3691 Fit       0.124114
 3692 Fit       0.121138
 3693 Fit       0.119109
 3694 Fit       0.117899
 3695 Fit       0.117453
 3696 Fit       0.117778
 3697 Fit       0.118955
 3698 Fit       0.121145
 3699 Fit       0.124623
 3700 Fit       0.130137
 3701 Fit       0.125415
 3702 Fit       0.122050
 3703 Fit       0.119765
 3704 Fit       0.118393
 3705 Fit       0.117858
 3706 Fit       0.118159
 3707 Fit       0.119373
 3708 Fit       0.121663
 3709 Fit       0.125301
 3710 Fit       0.132362
 3711 Fit       0.127050
 3712 Fit       0.123296
 3713 Fit       0.120747
 3714 Fit       0.119203
 3715 Fit       0.118561
 3716 Fit       0.118806
 3717 Fit       0.119998
 3718 Fit       0.122276
 3719 Fit       0.130605
 3720 Fit       0.125765
 3721 Fit       0.122500
 3722 Fit       0.120505
 3723 Fit       0.119616
 3724 Fit       0.119783
 3725 Fit       0.121046
 3726 Fit       0.123515
 3727 Fit       0.135002
 3728 Fit       0.128976
 3729 Fit       0.124854
 3730 Fit       0.122296
 3731 Fit       0.121086
 3732 Fit       0.121129
 3733 Fit       0.122418
 3734 Fit       0.126391
 3735 Fit       0.123756
 3736 Fit       0.122817
 3737 Fit       0.133926
 3738 Fit       0.133847
 3739 Fit       0.135528
 3740 Fit       0.132198
 3741 Fit       0.131922
 3742 Fit       0.133075
 3743 Fit       0.135684
 3744 Fit       0.139785
 3745 Fit       0.137235
 3746 Fit       0.133937
 3747 Fit       0.130907
 3748 Fit       0.130524
 3749 Fit       0.131395
 3750 Fit       0.133573
 3751 Fit       0.137192
 3752 Fit       0.142416
 3753 Fit       0.140543
 3754 Fit       0.135726
 3755 Fit       0.132591
 3756 Fit       0.129975
 3757 Fit       0.129524
 3758 Fit       0.130158
 3759 Fit       0.131925
 3760 Fit       0.134978
 3761 Fit       0.139585
 3762 Fit       0.138890
 3763 Fit       0.134442
 3764 Fit       0.131562
 3765 Fit       0.129346
 3766 Fit       0.128859
 3767 Fit       0.129416
 3768 Fit       0.131069
 3769 Fit       0.133990
 3770 Fit       0.138519
 3771 Fit       0.144799
 3772 Fit       0.138243
 3773 Fit       0.133794
 3774 Fit       0.130934
 3775 Fit       0.128983
 3776 Fit       0.128477
 3777 Fit       0.128945
 3778 Fit       0.130433
 3779 Fit       0.133104
 3780 Fit       0.137290
 3781 Fit       0.143761
 3782 Fit       0.137497
 3783 Fit       0.133257
 3784 Fit       0.130521
 3785 Fit       0.128865
 3786 Fit       0.128353
 3787 Fit       0.128777
 3788 Fit       0.130178
 3789 Fit       0.132707
 3790 Fit       0.136677
 3791 Fit       0.143160
 3792 Fit       0.137121
 3793 Fit       0.133023
 3794 Fit       0.130368
 3795 Fit       0.128983
 3796 Fit       0.128477
 3797 Fit       0.128945
 3798 Fit       0.130433
 3799 Fit       0.133104
 3800 Fit       0.137290
 3801 Fit       0.143761
 3802 Fit       0.137497
 3803 Fit       0.133257
 3804 Fit       0.130521
 3805 Fit       0.129346
 3806 Fit       0.128859
 3807 Fit       0.129416
 3808 Fit       0.131069
 3809 Fit       0.133990
 3810 Fit       0.138519
 3811 Fit       0.144799
 3812 Fit       0.138243
 3813 Fit       0.133794
 3814 Fit       0.130934
 3815 Fit       0.129975
 3816 Fit       0.129524
 3817 Fit       0.130158
 3818 Fit       0.131925
 3819 Fit       0.134978
 3820 Fit       0.139585
 3821 Fit       0.138890
 3822 Fit       0.134442
 3823 Fit       0.131562
 3824 Fit       0.130907
 3825 Fit       0.130524
 3826 Fit       0.131395
 3827 Fit       0.133573
 3828 Fit       0.137192
 3829 Fit       0.142416
 3830 Fit       0.140543
 3831 Fit       0.135726
 3832 Fit       0.132591
 3833 Fit       0.132198
 3834 Fit       0.131922
 3835 Fit       0.133075
 3836 Fit       0.135684
 3837 Fit       0.139785
 3838 Fit       0.137235
 3839 Fit       0.133937
 3840 Fit       0.133926
 3841 Fit       0.133847
 3842 Fit       0.135528
 3843 Fit       0.119358
 3844 Fit       0.120525
 3845 Fit       0.117302
 3846 Fit       0.116511
 3847 Fit       0.118783
 3848 Fit       0.122051
 3849 Fit       0.123012
 3850 Fit       0.122360
 3851 Fit       0.118718
 3852 Fit       0.115833
 3853 Fit       0.114301
 3854 Fit       0.114338
 3855 Fit       0.115916
 3856 Fit       0.118758
 3857 Fit       0.122241
 3858 Fit       0.125458
 3859 Fit       0.127494
 3860 Fit       0.127646
 3861 Fit       0.125723
 3862 Fit       0.124979
 3863 Fit       0.121071
 3864 Fit       0.117610
 3865 Fit       0.114932
 3866 Fit       0.113200
 3867 Fit       0.112469
 3868 Fit       0.112746
 3869 Fit       0.114018
 3870 Fit       0.116238
 3871 Fit       0.119268
 3872 Fit       0.122820
 3873 Fit       0.126448
 3874 Fit       0.129688
 3875 Fit       0.132174
 3876 Fit       0.133557
 3877 Fit       0.133484
 3878 Fit       0.131814
 3879 Fit       0.128787
 3880 Fit       0.124148
 3881 Fit       0.120153
 3882 Fit       0.116807
 3883 Fit       0.114232
 3884 Fit       0.112469
 3885 Fit       0.111512
 3886 Fit       0.111347
 3887 Fit       0.111969
 3888 Fit       0.113384
 3889 Fit       0.115597
 3890 Fit       0.118578
 3891 Fit       0.122205
 3892 Fit       0.126210
 3893 Fit       0.130199
 3894 Fit       0.133811
 3895 Fit       0.119504
 3896 Fit       0.116229
 3897 Fit       0.113737
 3898 Fit       0.112010
 3899 Fit       0.111009
 3900 Fit       0.110706
 3901 Fit       0.111092
 3902 Fit       0.112181
 3903 Fit       0.114004
 3904 Fit       0.116599
 3905 Fit       0.119982
 3906 Fit       0.124087
 3907 Fit       0.128689
 3908 Fit       0.133374
 3909 Fit       0.116289
 3910 Fit       0.113847
 3911 Fit       0.112124
 3912 Fit       0.111064
 3913 Fit       0.110629
 3914 Fit       0.110805
 3915 Fit       0.111601
 3916 Fit       0.113054
 3917 Fit       0.115220
 3918 Fit       0.118172
 3919 Fit       0.121972
 3920 Fit       0.126622
 3921 Fit       0.131970
 3922 Fit       0.113780
 3923 Fit       0.112227
 3924 Fit       0.111338
 3925 Fit       0.111073
 3926 Fit       0.111427
 3927 Fit       0.112422
 3928 Fit       0.114115
 3929 Fit       0.116594
 3930 Fit       0.119982
 3931 Fit       0.124420
 3932 Fit       0.130026
 3933 Fit       0.114386
 3934 Fit       0.113004
 3935 Fit       0.112273
 3936 Fit       0.112163
 3937 Fit       0.112678
 3938 Fit       0.113856
 3939 Fit       0.115771
 3940 Fit       0.118546
 3941 Fit       0.122358
 3942 Fit       0.127449
 3943 Fit       0.134116
 3944 Fit       0.114312
 3945 Fit       0.113896
 3946 Fit       0.114130
 3947 Fit       0.115042
 3948 Fit       0.116702
 3949 Fit       0.119232
 3950 Fit       0.122827
 3951 Fit       0.127784
 3952 Fit       0.134555
 3953 Fit       0.118077
 3954 Fit       0.120178
 3955 Fit       0.123379
 3956 Fit       0.118077
 3957 Fit       0.120178
 3958 Fit       0.123379
 3959 Fit       0.114312
 3960 Fit       0.113896
 3961 Fit       0.114130
 3962 Fit       0.115042
 3963 Fit       0.116702
 3964 Fit       0.119232
 3965 Fit       0.122827
 3966 Fit       0.127784
 3967 Fit       0.134555
 3968 Fit       0.114386
 3969 Fit       0.113004
 3970 Fit       0.112273
 3971 Fit       0.112163
 3972 Fit       0.112678
 3973 Fit       0.113856
 3974 Fit       0.115771
 3975 Fit       0.118546
 3976 Fit       0.122358
 3977 Fit       0.127449
 3978 Fit       0.134116
 3979 Fit       0.113780
 3980 Fit       0.112227
 3981 Fit       0.111338
 3982 Fit       0.111073
 3983 Fit       0.111427
 3984 Fit       0.112422
 3985 Fit       0.114115
 3986 Fit       0.116594
 3987 Fit       0.119982
 3988 Fit       0.124420
 3989 Fit       0.130026
 3990 Fit       0.116289
 3991 Fit       0.113847
 3992 Fit       0.112124
 3993 Fit       0.111064
 3994 Fit       0.110629
 3995 Fit       0.110805
 3996 Fit       0.111601
 3997 Fit       0.113054
 3998 Fit       0.115220
 3999 Fit       0.118172
 4000 Fit       0.121972
 4001 Fit       0.126622
 4002 Fit       0.131970
 4003 Fit       0.119504
 4004 Fit       0.116229
 4005 Fit       0.113737
 4006 Fit       0.112010
 4007 Fit       0.111009
 4008 Fit       0.110706
 4009 Fit       0.111092
 4010 Fit       0.112181
 4011 Fit       0.114004
 4012 Fit       0.116599
 4013 Fit       0.119982
 4014 Fit       0.124087
 4015 Fit       0.128689
 4016 Fit       0.133374
 4017 Fit       0.124148
 4018 Fit       0.120153
 4019 Fit       0.116807
 4020 Fit       0.114232
 4021 Fit       0.112469
 4022 Fit       0.111512
 4023 Fit       0.111347
 4024 Fit       0.111969
 4025 Fit       0.113384
 4026 Fit       0.115597
 4027 Fit       0.118578
 4028 Fit       0.122205
 4029 Fit       0.126210
 4030 Fit       0.130199
 4031 Fit       0.133811
 4032 Fit       0.124979
 4033 Fit       0.121071
 4034 Fit       0.117610
 4035 Fit       0.114932
 4036 Fit       0.113200
 4037 Fit       0.112469
 4038 Fit       0.112746
 4039 Fit       0.114018
 4040 Fit       0.116238
 4041 Fit       0.119268
 4042 Fit       0.122820
 4043 Fit       0.126448
 4044 Fit       0.129688
 4045 Fit       0.132174
 4046 Fit       0.133557
 4047 Fit       0.133484
 4048 Fit       0.131814
 4049 Fit       0.128787
 4050 Fit       0.122360
 4051 Fit       0.118718
 4052 Fit       0.115833
 4053 Fit       0.114301
 4054 Fit       0.114338
 4055 Fit       0.115916
 4056 Fit       0.118758
 4057 Fit       0.122241
 4058 Fit       0.125458
 4059 Fit       0.127494
 4060 Fit       0.127646
 4061 Fit       0.125723
 4062 Fit       0.120525
 4063 Fit       0.117302
 4064 Fit       0.116511
 4065 Fit       0.118783
 4066 Fit       0.122051
 4067 Fit       0.123012
 4068 Fit       0.119358
 4069 Fit       0.131710
 4070 Fit       0.126872
 4071 Fit       0.123893
 4072 Fit       0.131647
 4073 Fit       0.126346
 4074 Fit       0.122654
 4075 Fit       0.120508
 4076 Fit       0.119898
 4077 Fit       0.138530
 4078 Fit       0.132073
 4079 Fit       0.126270
 4080 Fit       0.122088
 4081 Fit       0.119323
 4082 Fit       0.117852
 4083 Fit       0.117656
 4084 Fit       0.139717
 4085 Fit       0.132757
 4086 Fit       0.126611
 4087 Fit       0.122111
 4088 Fit       0.118949
 4089 Fit       0.116933
 4090 Fit       0.115972
 4091 Fit       0.116064
 4092 Fit       0.140988
 4093 Fit       0.133468
 4094 Fit       0.126847
 4095 Fit       0.122036
 4096 Fit       0.118614
 4097 Fit       0.116328
 4098 Fit       0.115049
 4099 Fit       0.114738
 4100 Fit       0.115433
 4101 Fit       0.133997
 4102 Fit       0.127186
 4103 Fit       0.122235
 4104 Fit       0.118668
 4105 Fit       0.116204
 4106 Fit       0.114692
 4107 Fit       0.114067
 4108 Fit       0.114338
 4109 Fit       0.115577
 4110 Fit       0.134192
 4111 Fit       0.127363
 4112 Fit       0.122388
 4113 Fit       0.118779
 4114 Fit       0.116251
 4115 Fit       0.114647
 4116 Fit       0.113893
 4117 Fit       0.113987
 4118 Fit       0.114984
 4119 Fit       0.133997
 4120 Fit       0.127186
 4121 Fit       0.122235
 4122 Fit       0.118668
 4123 Fit       0.116204
 4124 Fit       0.114692
 4125 Fit       0.114067
 4126 Fit       0.114338
 4127 Fit       0.115577
 4128 Fit       0.133468
 4129 Fit       0.126847
 4130 Fit       0.122036
 4131 Fit       0.118614
 4132 Fit       0.116328
 4133 Fit       0.115049
 4134 Fit       0.114738
 4135 Fit       0.115433
 4136 Fit       0.132757
 4137 Fit       0.126611
 4138 Fit       0.122111
 4139 Fit       0.118949
 4140 Fit       0.116933
 4141 Fit       0.115972
 4142 Fit       0.116064
 4143 Fit       0.140988
 4144 Fit       0.132073
 4145 Fit       0.126270
 4146 Fit       0.122088
 4147 Fit       0.119323
 4148 Fit       0.117852
 4149 Fit       0.117656
 4150 Fit       0.139717
 4151 Fit       0.131647
 4152 Fit       0.126346
 4153 Fit       0.122654
 4154 Fit       0.120508
 4155 Fit       0.119898
 4156 Fit       0.138530
 4157 Fit       0.131710
 4158 Fit       0.126872
 4159 Fit       0.123893
 4160 Fit       0.135644
 4161 Fit       0.136355
 4162 Fit       0.136598
 4163 Fit       0.135089
 4164 Fit       0.134542
 4165 Fit       0.134921
 4166 Fit       0.136245
 4167 Fit       0.138593
 4168 Fit       0.142936
 4169 Fit       0.136265
 4170 Fit       0.134597
 4171 Fit       0.133819
 4172 Fit       0.133854
 4173 Fit       0.134689
 4174 Fit       0.136384
 4175 Fit       0.139069
 4176 Fit       0.143809
 4177 Fit       0.138824
 4178 Fit       0.136080
 4179 Fit       0.134330
 4180 Fit       0.133399
 4181 Fit       0.133182
 4182 Fit       0.133642
 4183 Fit       0.134806
 4184 Fit       0.136765
 4185 Fit       0.139682
 4186 Fit       0.144553
 4187 Fit       0.140848
 4188 Fit       0.137309
 4189 Fit       0.134969
 4190 Fit       0.133548
 4191 Fit       0.132879
 4192 Fit       0.132873
 4193 Fit       0.133512
 4194 Fit       0.134840
 4195 Fit       0.136971
 4196 Fit       0.140103
 4197 Fit       0.145052
 4198 Fit       0.143181
 4199 Fit       0.138873
 4200 Fit       0.135972
 4201 Fit       0.134094
 4202 Fit       0.133012
 4203 Fit       0.132592
 4204 Fit       0.132776
 4205 Fit       0.133563
 4206 Fit       0.135012
 4207 Fit       0.137246
 4208 Fit       0.140479
 4209 Fit       0.145228
 4210 Fit       0.141854
 4211 Fit       0.137998
 4212 Fit       0.135406
 4213 Fit       0.133746
 4214 Fit       0.132819
 4215 Fit       0.132512
 4216 Fit       0.132780
 4217 Fit       0.133630
 4218 Fit       0.135125
 4219 Fit       0.137392
 4220 Fit       0.140645
 4221 Fit       0.145052
 4222 Fit       0.143181
 4223 Fit       0.138873
 4224 Fit       0.135972
 4225 Fit       0.134094
 4226 Fit       0.133012
 4227 Fit       0.132592
 4228 Fit       0.132776
 4229 Fit       0.133563
 4230 Fit       0.135012
 4231 Fit       0.137246
 4232 Fit       0.140479
 4233 Fit       0.144553
 4234 Fit       0.140848
 4235 Fit       0.137309
 4236 Fit       0.134969
 4237 Fit       0.133548
 4238 Fit       0.132879
 4239 Fit       0.132873
 4240 Fit       0.133512
 4241 Fit       0.134840
 4242 Fit       0.136971
 4243 Fit       0.140103
 4244 Fit       0.143809
 4245 Fit       0.138824
 4246 Fit       0.136080
 4247 Fit       0.134330
 4248 Fit       0.133399
 4249 Fit       0.133182
 4250 Fit       0.133642
 4251 Fit       0.134806
 4252 Fit       0.136765
 4253 Fit       0.139682
 4254 Fit       0.142936
 4255 Fit       0.136265
 4256 Fit       0.134597
 4257 Fit       0.133819
 4258 Fit       0.133854
 4259 Fit       0.134689
 4260 Fit       0.136384
 4261 Fit       0.139069
 4262 Fit       0.136598
 4263 Fit       0.135089
 4264 Fit       0.134542
 4265 Fit       0.134921
 4266 Fit       0.136245
 4267 Fit       0.138593
 4268 Fit       0.135644
 4269 Fit       0.136355
 -----------------------------------------------------------------
 Leave Link  602 at Tue Sep 30 18:20:32 2025, MaxMem=  4294967296 cpu:               3.5 elap:               0.2
 (Enter /software/sse/easybuild/prefix/software/Gaussian/16.C.01-avx2-nsc1/g16/l9999.exe)

 Test job not archived.
 1\1\NSC-N1097\FOpt\RMP2-FC\Aug-CC-pVTZ\C4H7N2(1+)\X_DAVVA\30-Sep-2025\
 0\\#P MP2/aug-cc-pvtz Opt=tight density=MP2 Pop=(MK,Hirshfeld) iop(6/3
 3=2) iop(6/42=6) maxdisk=128GB\\1-methylimidazolium\\1,1\N,1.492548831
 8,-0.4467640077,0.\C,1.3340379764,0.9134914267,0.\C,-0.016074883,1.141
 1035603,0.\N,-0.6334605159,-0.0858979478,0.\C,0.2948359449,-1.04571183
 67,0.\C,-2.0833495988,-0.3070855037,0.\H,2.1653715247,1.5951174347,0.\
 H,-0.5730627702,2.0613167249,0.\H,0.1112637827,-2.1058219482,0.\H,-2.5
 083872132,0.1428546711,-0.8921467146\H,-2.5083872132,0.1428546711,0.89
 21467146\H,-2.2708607494,-1.3759421791,0.\H,2.3761049074,-0.9383653229
 ,0.\\Version=ES64L-G16RevC.01\State=1-A'\HF=-264.3287866\MP2=-265.3887
 997\RMSD=3.012e-09\RMSF=1.018e-06\Dipole=0.446939,-0.2628411,0.\Quadru
 pole=1.247954,7.0101643,-8.2581183,-1.310849,0.,0.\PG=CS [SG(C4H5N2),X
 (H2)]\\@


 QED = W**5 (WHICH WAS WHAT WE WANTED)
 Job cpu time:       0 days 21 hours 36 minutes 19.7 seconds.
 Elapsed time:       0 days  1 hours 21 minutes 36.6 seconds.
 File lengths (MBytes):  RWF=  27201 Int=      0 D2E=      0 Chk=     24 Scr=      1
 Normal termination of Gaussian 16 at Tue Sep 30 18:20:34 2025.
