 Entering Gaussian System, Link 0=/software/sse/easybuild/prefix/software/Gaussian/16.C.01-avx2-nsc1/g16/g16.orig
 Input=guanidinium.wrap
 Output=guanidinium.log
 Initial command:
 /software/sse/easybuild/prefix/software/Gaussian/16.C.01-avx2-nsc1/g16/l1.exe "/scratch/local/Gau-847556.inp" -scrdir="/scratch/local/"
 Entering Link 1 = /software/sse/easybuild/prefix/software/Gaussian/16.C.01-avx2-nsc1/g16/l1.exe PID=    847582.
  
 Copyright (c) 1988-2019, Gaussian, Inc.  All Rights Reserved.
  
 This is part of the Gaussian(R) 16 program.  It is based on
 the Gaussian(R) 09 system (copyright 2009, Gaussian, Inc.),
 the Gaussian(R) 03 system (copyright 2003, Gaussian, Inc.),
 the Gaussian(R) 98 system (copyright 1998, Gaussian, Inc.),
 the Gaussian(R) 94 system (copyright 1995, Gaussian, Inc.),
 the Gaussian 92(TM) system (copyright 1992, Gaussian, Inc.),
 the Gaussian 90(TM) system (copyright 1990, Gaussian, Inc.),
 the Gaussian 88(TM) system (copyright 1988, Gaussian, Inc.),
 the Gaussian 86(TM) system (copyright 1986, Carnegie Mellon
 University), and the Gaussian 82(TM) system (copyright 1983,
 Carnegie Mellon University). Gaussian is a federally registered
 trademark of Gaussian, Inc.
  
 This software contains proprietary and confidential information,
 including trade secrets, belonging to Gaussian, Inc.
  
 This software is provided under written license and may be
 used, copied, transmitted, or stored only in accord with that
 written license.
  
 The following legend is applicable only to US Government
 contracts under FAR:
  
                    RESTRICTED RIGHTS LEGEND
  
 Use, reproduction and disclosure by the US Government is
 subject to restrictions as set forth in subparagraphs (a)
 and (c) of the Commercial Computer Software - Restricted
 Rights clause in FAR 52.227-19.
  
 Gaussian, Inc.
 340 Quinnipiac St., Bldg. 40, Wallingford CT 06492
  
  
 ---------------------------------------------------------------
 Warning -- This program may not be used in any manner that
 competes with the business of Gaussian, Inc. or will provide
 assistance to any competitor of Gaussian, Inc.  The licensee
 of this program is prohibited from giving any competitor of
 Gaussian, Inc. access to this program.  By using this program,
 the user acknowledges that Gaussian, Inc. is engaged in the
 business of creating and licensing software in the field of
 computational chemistry and represents and warrants to the
 licensee that it is not a competitor of Gaussian, Inc. and that
 it will not use this program in any manner prohibited above.
 ---------------------------------------------------------------
  

 Cite this work as:
 Gaussian 16, Revision C.01,
 M. J. Frisch, G. W. Trucks, H. B. Schlegel, G. E. Scuseria, 
 M. A. Robb, J. R. Cheeseman, G. Scalmani, V. Barone, 
 G. A. Petersson, H. Nakatsuji, X. Li, M. Caricato, A. V. Marenich, 
 J. Bloino, B. G. Janesko, R. Gomperts, B. Mennucci, H. P. Hratchian, 
 J. V. Ortiz, A. F. Izmaylov, J. L. Sonnenberg, D. Williams-Young, 
 F. Ding, F. Lipparini, F. Egidi, J. Goings, B. Peng, A. Petrone, 
 T. Henderson, D. Ranasinghe, V. G. Zakrzewski, J. Gao, N. Rega, 
 G. Zheng, W. Liang, M. Hada, M. Ehara, K. Toyota, R. Fukuda, 
 J. Hasegawa, M. Ishida, T. Nakajima, Y. Honda, O. Kitao, H. Nakai, 
 T. Vreven, K. Throssell, J. A. Montgomery, Jr., J. E. Peralta, 
 F. Ogliaro, M. J. Bearpark, J. J. Heyd, E. N. Brothers, K. N. Kudin, 
 V. N. Staroverov, T. A. Keith, R. Kobayashi, J. Normand, 
 K. Raghavachari, A. P. Rendell, J. C. Burant, S. S. Iyengar, 
 J. Tomasi, M. Cossi, J. M. Millam, M. Klene, C. Adamo, R. Cammi, 
 J. W. Ochterski, R. L. Martin, K. Morokuma, O. Farkas, 
 J. B. Foresman, and D. J. Fox, Gaussian, Inc., Wallingford CT, 2019.
 
 ******************************************
 Gaussian 16:  ES64L-G16RevC.01  3-Jul-2019
                28-Sep-2025 
 ******************************************
 %mem=12000MB
 %nprocshared=8
 Will use up to    8 processors via shared memory.
 %chk=water19.chk
 ----------------------------------------------------------------------
 #P HF/aug-cc-pvtz Opt=(Redundant, calcall, verytight) symm=(loose,foll
 ow) Pop=(MK,Hirshfeld,ReadRadii) iop(6/33=2) iop(6/42=6) Polar Freq ma
 xdisk=128GB
 ----------------------------------------------------------------------
 1/7=1,10=4,18=20,19=15,38=1/1,3;
 2/9=110,12=2,17=4,18=3,40=1/2;
 3/5=16,6=1,7=10,11=9,25=1,30=1,71=2,140=1/1,2,3;
 4//1;
 5/5=2,38=5,98=1/2;
 8/6=4,10=90,11=11/1;
 11/6=1,8=1,9=11,15=111,16=1/1,2,10;
 10/6=1/2;
 6/7=2,8=2,9=2,10=2,15=8,18=1,20=101,28=1,33=2,42=6,79=1/1,2;
 7/10=1,25=1/1,2,3,16;
 1/7=1,10=4,18=20,19=15/3(3);
 2/9=110,15=5/2;
 7/8=1,9=1,25=1,44=-1/16;
 99//99;
 2/9=110,15=5/2;
 3/5=16,6=1,7=10,11=9,25=1,30=1,71=2,140=1/1,2,3;
 4/5=5,16=3,69=1/1;
 5/5=2,38=5,98=1/2;
 8/6=4,10=90,11=11/1;
 11/6=1,8=1,9=11,15=111,16=1/1,2,10;
 10/6=1/2;
 7/10=1,25=1/1,2,3,16;
 1/7=1,10=4,18=20,19=15/3(-8);
 2/9=110,15=5/2;
 6/7=2,8=2,9=2,10=2,15=8,18=1,19=2,20=101,28=1,33=2,42=6,79=1/1,2;
 7/8=1,9=1,25=1,44=-1/16;
 99//99;
 Leave Link    1 at Sun Sep 28 20:46:01 2025, MaxMem=  1572864000 cpu:               0.6 elap:               0.1
 (Enter /software/sse/easybuild/prefix/software/Gaussian/16.C.01-avx2-nsc1/g16/l101.exe)
 -----------
 guanidinium
 -----------
 Symbolic Z-matrix:
 Charge =  1 Multiplicity = 1
 C                    -0.0073    0.0248    0. 
 N                    -1.0931   -0.7502    0. 
 N                     1.2068   -0.528     0. 
 N                    -0.1356    1.3527    0. 
 H                     2.0669    0.0115    0. 
 H                     1.3646   -1.531     0. 
 H                    -2.0406   -0.3853    0. 
 H                    -1.0559   -1.7649    0. 
 H                    -1.0329    1.8278    0. 
 H                     0.6542    1.9908    0. 
 
 ITRead=  0  0  0  0  0  0  0  0  0  0
 MicOpt= -1 -1 -1 -1 -1 -1 -1 -1 -1 -1
 NAtoms=     10 NQM=       10 NQMF=       0 NMMI=      0 NMMIF=      0
                NMic=       0 NMicF=      0.
                    Isotopes and Nuclear Properties:
 (Nuclear quadrupole moments (NQMom) in fm**2, nuclear magnetic moments (NMagM)
  in nuclear magnetons)

  Atom         1           2           3           4           5           6           7           8           9          10
 IAtWgt=          12          14          14          14           1           1           1           1           1           1
 AtmWgt=  12.0000000  14.0030740  14.0030740  14.0030740   1.0078250   1.0078250   1.0078250   1.0078250   1.0078250   1.0078250
 NucSpn=           0           2           2           2           1           1           1           1           1           1
 AtZEff=  -0.0000000  -0.0000000  -0.0000000  -0.0000000  -0.0000000  -0.0000000  -0.0000000  -0.0000000  -0.0000000  -0.0000000
 NQMom=    0.0000000   2.0440000   2.0440000   2.0440000   0.0000000   0.0000000   0.0000000   0.0000000   0.0000000   0.0000000
 NMagM=    0.0000000   0.4037610   0.4037610   0.4037610   2.7928460   2.7928460   2.7928460   2.7928460   2.7928460   2.7928460
 AtZNuc=   6.0000000   7.0000000   7.0000000   7.0000000   1.0000000   1.0000000   1.0000000   1.0000000   1.0000000   1.0000000
 Leave Link  101 at Sun Sep 28 20:46:01 2025, MaxMem=  1572864000 cpu:               1.9 elap:               0.3
 (Enter /software/sse/easybuild/prefix/software/Gaussian/16.C.01-avx2-nsc1/g16/l103.exe)

 GradGradGradGradGradGradGradGradGradGradGradGradGradGradGradGradGradGrad
 Berny optimization.
 Initialization pass.
                           ----------------------------
                           !    Initial Parameters    !
                           ! (Angstroms and Degrees)  !
 --------------------------                            --------------------------
 ! Name  Definition              Value          Derivative Info.                !
 --------------------------------------------------------------------------------
 ! R1    R(1,2)                  1.334          calculate D2E/DX2 analytically  !
 ! R2    R(1,3)                  1.334          calculate D2E/DX2 analytically  !
 ! R3    R(1,4)                  1.3341         calculate D2E/DX2 analytically  !
 ! R4    R(2,7)                  1.0153         calculate D2E/DX2 analytically  !
 ! R5    R(2,8)                  1.0154         calculate D2E/DX2 analytically  !
 ! R6    R(3,5)                  1.0153         calculate D2E/DX2 analytically  !
 ! R7    R(3,6)                  1.0153         calculate D2E/DX2 analytically  !
 ! R8    R(4,9)                  1.0153         calculate D2E/DX2 analytically  !
 ! R9    R(4,10)                 1.0154         calculate D2E/DX2 analytically  !
 ! A1    A(2,1,3)              120.0017         calculate D2E/DX2 analytically  !
 ! A2    A(2,1,4)              119.999          calculate D2E/DX2 analytically  !
 ! A3    A(3,1,4)              119.9993         calculate D2E/DX2 analytically  !
 ! A4    A(1,2,7)              123.4197         calculate D2E/DX2 analytically  !
 ! A5    A(1,2,8)              123.4181         calculate D2E/DX2 analytically  !
 ! A6    A(7,2,8)              113.1622         calculate D2E/DX2 analytically  !
 ! A7    A(1,3,5)              123.4213         calculate D2E/DX2 analytically  !
 ! A8    A(1,3,6)              123.4215         calculate D2E/DX2 analytically  !
 ! A9    A(5,3,6)              113.1572         calculate D2E/DX2 analytically  !
 ! A10   A(1,4,9)              123.4189         calculate D2E/DX2 analytically  !
 ! A11   A(1,4,10)             123.4169         calculate D2E/DX2 analytically  !
 ! A12   A(9,4,10)             113.1641         calculate D2E/DX2 analytically  !
 ! D1    D(3,1,2,7)            180.0            calculate D2E/DX2 analytically  !
 ! D2    D(3,1,2,8)              0.0            calculate D2E/DX2 analytically  !
 ! D3    D(4,1,2,7)              0.0            calculate D2E/DX2 analytically  !
 ! D4    D(4,1,2,8)            180.0            calculate D2E/DX2 analytically  !
 ! D5    D(2,1,3,5)            180.0            calculate D2E/DX2 analytically  !
 ! D6    D(2,1,3,6)              0.0            calculate D2E/DX2 analytically  !
 ! D7    D(4,1,3,5)              0.0            calculate D2E/DX2 analytically  !
 ! D8    D(4,1,3,6)            180.0            calculate D2E/DX2 analytically  !
 ! D9    D(2,1,4,9)              0.0            calculate D2E/DX2 analytically  !
 ! D10   D(2,1,4,10)           180.0            calculate D2E/DX2 analytically  !
 ! D11   D(3,1,4,9)            180.0            calculate D2E/DX2 analytically  !
 ! D12   D(3,1,4,10)             0.0            calculate D2E/DX2 analytically  !
 --------------------------------------------------------------------------------
 Trust Radius=3.00D-01 FncErr=1.00D-07 GrdErr=1.00D-07 EigMax=2.50D+02 EigMin=1.00D-04
 Number of steps in this run=     43 maximum allowed number of steps=    100.
 GradGradGradGradGradGradGradGradGradGradGradGradGradGradGradGradGradGrad

 Leave Link  103 at Sun Sep 28 20:46:02 2025, MaxMem=  1572864000 cpu:               0.1 elap:               0.0
 (Enter /software/sse/easybuild/prefix/software/Gaussian/16.C.01-avx2-nsc1/g16/l202.exe)
                          Input orientation:                          
 ---------------------------------------------------------------------
 Center     Atomic      Atomic             Coordinates (Angstroms)
 Number     Number       Type             X           Y           Z
 ---------------------------------------------------------------------
      1          6           0       -0.007300    0.024800    0.000000
      2          7           0       -1.093100   -0.750200    0.000000
      3          7           0        1.206800   -0.528000    0.000000
      4          7           0       -0.135600    1.352700    0.000000
      5          1           0        2.066900    0.011500    0.000000
      6          1           0        1.364600   -1.531000    0.000000
      7          1           0       -2.040600   -0.385300    0.000000
      8          1           0       -1.055900   -1.764900    0.000000
      9          1           0       -1.032900    1.827800    0.000000
     10          1           0        0.654200    1.990800    0.000000
 ---------------------------------------------------------------------
                    Distance matrix (angstroms):
                    1          2          3          4          5
     1  C    0.000000
     2  N    1.334011   0.000000
     3  N    1.334026   2.310609   0.000000
     4  N    1.334084   2.310626   2.310643   0.000000
     5  H    2.074243   3.250506   1.015299   2.578725   0.000000
     6  H    2.074277   2.578747   1.015337   3.250589   1.694854
     7  H    2.074245   1.015337   3.250534   2.578695   4.126622
     8  H    2.074268   1.015382   2.578708   3.250597   3.592698
     9  H    2.074286   2.578703   3.250546   1.015316   3.592730
    10  H    2.074304   3.250560   2.578705   1.015360   2.431738
                    6          7          8          9         10
     6  H    0.000000
     7  H    3.592773   0.000000
     8  H    2.431775   1.694972   0.000000
     9  H    4.126687   2.431722   3.592774   0.000000
    10  H    3.592735   3.592742   4.126709   1.694956   0.000000
 Stoichiometry    CH6N3(1+)
 Framework group  D3H[O(C),3C2(N),SGH(H6)]
 Deg. of freedom     3
 Full point group                 D3H     NOp  12
 Largest Abelian subgroup         C2V     NOp   4
 Largest concise Abelian subgroup C2      NOp   2
                         Standard orientation:                         
 ---------------------------------------------------------------------
 Center     Atomic      Atomic             Coordinates (Angstroms)
 Number     Number       Type             X           Y           Z
 ---------------------------------------------------------------------
      1          6           0       -0.000000   -0.000000   -0.000000
      2          7           0        0.000000    1.334028   -0.000000
      3          7           0       -1.155302   -0.667014   -0.000000
      4          7           0        1.155302   -0.667014   -0.000000
      5          1           0       -1.215887   -1.680502    0.000000
      6          1           0       -2.063302   -0.212738    0.000000
      7          1           0        0.847414    1.893241   -0.000000
      8          1           0       -0.847414    1.893241    0.000000
      9          1           0        2.063302   -0.212738    0.000000
     10          1           0        1.215887   -1.680502    0.000000
 ---------------------------------------------------------------------
 Rotational constants (GHZ):          10.0295771          10.0295771           5.0147885
 Leave Link  202 at Sun Sep 28 20:46:02 2025, MaxMem=  1572864000 cpu:               0.1 elap:               0.0
 (Enter /software/sse/easybuild/prefix/software/Gaussian/16.C.01-avx2-nsc1/g16/l301.exe)
 Standard basis: Aug-CC-pVTZ (5D, 7F)
 Ernie: Thresh=  0.10000D-02 Tol=  0.10000D-05 Strict=F.
 Ernie:  12 primitive shells out of 186 were deleted.
 There are   139 symmetry adapted cartesian basis functions of A1  symmetry.
 There are    49 symmetry adapted cartesian basis functions of A2  symmetry.
 There are   117 symmetry adapted cartesian basis functions of B1  symmetry.
 There are    65 symmetry adapted cartesian basis functions of B2  symmetry.
 There are   116 symmetry adapted basis functions of A1  symmetry.
 There are    47 symmetry adapted basis functions of A2  symmetry.
 There are   100 symmetry adapted basis functions of B1  symmetry.
 There are    59 symmetry adapted basis functions of B2  symmetry.
   322 basis functions,   450 primitive gaussians,   370 cartesian basis functions
    16 alpha electrons       16 beta electrons
       nuclear repulsion energy       133.0365232854 Hartrees.
 IExCor=    0 DFT=F Ex=HF Corr=None ExCW=0 ScaHFX=  1.000000
 ScaDFX=  1.000000  1.000000  1.000000  1.000000 ScalE2=  1.000000  1.000000
 IRadAn=      5 IRanWt=     -1 IRanGd=            0 ICorTp=0 IEmpDi=  4
 NAtoms=   10 NActive=   10 NUniq=    3 SFac= 4.00D+00 NAtFMM=   60 NAOKFM=F Big=F
 Integral buffers will be    131072 words long.
 Raffenetti 1 integral format.
 Two-electron integral symmetry is turned on.
 Leave Link  301 at Sun Sep 28 20:46:02 2025, MaxMem=  1572864000 cpu:               0.4 elap:               0.1
 (Enter /software/sse/easybuild/prefix/software/Gaussian/16.C.01-avx2-nsc1/g16/l302.exe)
 NPDir=0 NMtPBC=     1 NCelOv=     1 NCel=       1 NClECP=     1 NCelD=      1
         NCelK=      1 NCelE2=     1 NClLst=     1 CellRange=     0.0.
 One-electron integrals computed using PRISM.
 One-electron integral symmetry used in STVInt
 NBasis=   322 RedAO= T EigKep=  3.21D-05  NBF=   116    47   100    59
 NBsUse=   322 1.00D-06 EigRej= -1.00D+00 NBFU=   116    47   100    59
 Leave Link  302 at Sun Sep 28 20:46:03 2025, MaxMem=  1572864000 cpu:               1.4 elap:               0.2
 (Enter /software/sse/easybuild/prefix/software/Gaussian/16.C.01-avx2-nsc1/g16/l303.exe)
 DipDrv:  MaxL=1.
 Leave Link  303 at Sun Sep 28 20:46:04 2025, MaxMem=  1572864000 cpu:               0.8 elap:               0.1
 (Enter /software/sse/easybuild/prefix/software/Gaussian/16.C.01-avx2-nsc1/g16/l401.exe)
 ExpMin= 2.53D-02 ExpMax= 1.14D+04 ExpMxC= 3.89D+02 IAcc=3 IRadAn=         5 AccDes= 0.00D+00
 Harris functional with IExCor=  205 and IRadAn=       5 diagonalized for initial guess.
 HarFok:  IExCor=  205 AccDes= 0.00D+00 IRadAn=         5 IDoV= 1 UseB2=F ITyADJ=14
 ICtDFT=  3500011 ScaDFX=  1.000000  1.000000  1.000000  1.000000
 FoFCou: FMM=F IPFlag=           0 FMFlag=      100000 FMFlg1=           0
         NFxFlg=           0 DoJE=T BraDBF=F KetDBF=T FulRan=T
         wScrn=  0.000000 ICntrl=       500 IOpCl=  0 I1Cent=   200000004 NGrid=           0
         NMat0=    1 NMatS0=      1 NMatT0=    0 NMatD0=    1 NMtDS0=    0 NMtDT0=    0
 Petite list used in FoFCou.
 Harris En= -204.903912321049    
 JPrj=0 DoOrth=F DoCkMO=F.
 Initial guess orbital symmetries:
       Occupied  (E') (E') (A1') (A1') (A1') (E') (E') (A1') (E')
                 (E') (E') (E') (A2') (A2") (E") (E")
       Virtual   (A2") (A1') (E') (E') (E') (E') (A2") (A1') (A1')
                 (A2') (E') (E') (E") (E") (A1') (E') (E') (A2')
                 (E') (E') (E') (E') (A2") (E") (E") (A1') (A1')
                 (E') (E') (E') (E') (A1") (E') (E') (A2") (A2')
                 (A1') (E") (E") (E') (E') (A1') (E') (E') (E")
                 (E") (E') (E') (A1') (E') (E') (A2") (A2') (E")
                 (E") (A2') (E') (E') (A2") (E') (E') (A1') (A1")
                 (A1') (E") (E") (E') (E') (A2') (E') (E') (A1')
                 (E') (E') (A2") (A1') (E') (E') (E") (E") (E")
                 (E") (A1') (E") (E") (A2') (E') (E') (E') (E')
                 (A2") (E') (E') (E") (E") (A2') (A1') (E') (E')
                 (A1") (A2") (A1') (A1') (E") (E") (A2') (E') (E')
                 (E') (E') (E") (E") (A1") (E') (E') (E") (E")
                 (E') (E') (A1') (A2") (A1") (E') (E') (A2') (A2")
                 (E") (E") (E') (E') (A2') (A1') (E') (E') (E')
                 (E') (A1') (E') (E') (E") (E") (A2") (A2') (E')
                 (E') (E") (E") (A1') (E') (E') (A2') (A1') (A1")
                 (A2") (A2') (E') (E') (E") (E") (A1') (E') (E')
                 (A2") (E") (E") (A1') (E') (E') (E') (E') (E')
                 (E') (A2') (E') (E') (E") (E") (A1") (E") (E")
                 (A1') (A2') (E') (E') (A2") (A2') (A1') (E') (E')
                 (E') (E') (E") (E") (A2") (E") (E") (E') (E')
                 (A2') (A1') (A1') (E") (E") (E') (E') (A2") (E')
                 (E') (A1') (E') (E') (A1") (A2') (E") (E") (E')
                 (E') (E") (E") (A2") (A1') (E") (E") (E') (E')
                 (A1") (A1') (A2") (E") (E") (E') (E') (E') (E')
                 (A2') (E") (E") (E') (E') (A2') (A1') (A2") (A1')
                 (E') (E') (A1") (A2') (E") (E") (E') (E') (A1')
                 (A2') (A1") (E') (E') (E') (E') (A2') (A2") (E")
                 (E") (A2") (E') (E') (E') (E') (E") (E") (A1')
                 (E') (E') (A1') (E") (E") (E") (E") (A2') (E')
                 (E') (A1") (A2") (E') (E') (E") (E") (A1') (A2')
                 (E') (E') (A1') (E') (E') (E') (E') (A1') (E')
                 (E') (A2') (E') (E') (A2') (A1') (E') (E') (A1')
 The electronic state of the initial guess is 1-A1'.
 Leave Link  401 at Sun Sep 28 20:46:04 2025, MaxMem=  1572864000 cpu:               2.2 elap:               0.3
 (Enter /software/sse/easybuild/prefix/software/Gaussian/16.C.01-avx2-nsc1/g16/l502.exe)
 Integral symmetry usage will be decided dynamically.
 Closed shell SCF:
 Using DIIS extrapolation, IDIIS=  1040.
 NGot=  1572864000 LenX=  1572580604 LenY=  1572443263
 Requested convergence on RMS density matrix=1.00D-08 within 128 cycles.
 Requested convergence on MAX density matrix=1.00D-06.
 Requested convergence on             energy=1.00D-06.
 No special actions if energy rises.
 Fock matrices will be formed incrementally for  20 cycles.

 Cycle   1  Pass 1  IDiag  1:
 FoFJK:  IHMeth= 1 ICntrl=       0 DoSepK=F KAlg= 0 I1Cent=           0 FoldK=F
 IRaf= 990000000 NMat=       1 IRICut=       1 DoRegI=T DoRafI=F ISym2E= 1 IDoP0=0 IntGTp=1.
 FoFCou: FMM=F IPFlag=           0 FMFlag=      100000 FMFlg1=           0
         NFxFlg=           0 DoJE=F BraDBF=F KetDBF=F FulRan=T
         wScrn=  0.000000 ICntrl=         0 IOpCl=  0 I1Cent=           0 NGrid=           0
         NMat0=    1 NMatS0=      1 NMatT0=    0 NMatD0=    1 NMtDS0=    0 NMtDT0=    0
 Petite list used in FoFCou.
 E= -204.444748503534    
 DIIS: error= 4.81D-02 at cycle   1 NSaved=   1.
 NSaved= 1 IEnMin= 1 EnMin= -204.444748503534     IErMin= 1 ErrMin= 4.81D-02
 ErrMax= 4.81D-02  0.00D+00 EMaxC= 1.00D-01 BMatC= 4.52D-01 BMatP= 4.52D-01
 IDIUse=3 WtCom= 5.19D-01 WtEn= 4.81D-01
 Coeff-Com:  0.100D+01
 Coeff-En:   0.100D+01
 Coeff:      0.100D+01
 Gap=     0.467 Goal=   None    Shift=    0.000
 GapD=    0.467 DampG=2.000 DampE=0.500 DampFc=1.0000 IDamp=-1.
 RMSDP=1.21D-03 MaxDP=1.08D-01              OVMax= 8.72D-02

 Cycle   2  Pass 1  IDiag  1:
 RMSU=  1.19D-03    CP:  9.72D-01
 E= -204.583699602938     Delta-E=       -0.138951099404 Rises=F Damp=F
 DIIS: error= 1.60D-02 at cycle   2 NSaved=   2.
 NSaved= 2 IEnMin= 2 EnMin= -204.583699602938     IErMin= 2 ErrMin= 1.60D-02
 ErrMax= 1.60D-02  0.00D+00 EMaxC= 1.00D-01 BMatC= 3.93D-02 BMatP= 4.52D-01
 IDIUse=3 WtCom= 8.40D-01 WtEn= 1.60D-01
 Coeff-Com:  0.145D+00 0.855D+00
 Coeff-En:   0.000D+00 0.100D+01
 Coeff:      0.121D+00 0.879D+00
 Gap=     0.551 Goal=   None    Shift=    0.000
 RMSDP=3.57D-04 MaxDP=1.73D-02 DE=-1.39D-01 OVMax= 4.46D-02

 Cycle   3  Pass 1  IDiag  1:
 RMSU=  3.42D-04    CP:  9.79D-01  9.28D-01
 E= -204.609020369891     Delta-E=       -0.025320766952 Rises=F Damp=F
 DIIS: error= 5.60D-03 at cycle   3 NSaved=   3.
 NSaved= 3 IEnMin= 3 EnMin= -204.609020369891     IErMin= 3 ErrMin= 5.60D-03
 ErrMax= 5.60D-03  0.00D+00 EMaxC= 1.00D-01 BMatC= 4.18D-03 BMatP= 3.93D-02
 IDIUse=3 WtCom= 9.44D-01 WtEn= 5.60D-02
 Coeff-Com: -0.287D-01 0.210D+00 0.819D+00
 Coeff-En:   0.000D+00 0.000D+00 0.100D+01
 Coeff:     -0.271D-01 0.198D+00 0.829D+00
 Gap=     0.526 Goal=   None    Shift=    0.000
 RMSDP=8.19D-05 MaxDP=4.16D-03 DE=-2.53D-02 OVMax= 9.12D-03

 Cycle   4  Pass 1  IDiag  1:
 RMSU=  4.79D-05    CP:  9.77D-01  9.62D-01  8.51D-01
 E= -204.611902329806     Delta-E=       -0.002881959916 Rises=F Damp=F
 DIIS: error= 7.74D-04 at cycle   4 NSaved=   4.
 NSaved= 4 IEnMin= 4 EnMin= -204.611902329806     IErMin= 4 ErrMin= 7.74D-04
 ErrMax= 7.74D-04  0.00D+00 EMaxC= 1.00D-01 BMatC= 2.67D-05 BMatP= 4.18D-03
 IDIUse=3 WtCom= 9.92D-01 WtEn= 7.74D-03
 Coeff-Com:  0.409D-02-0.462D-01-0.153D+00 0.120D+01
 Coeff-En:   0.000D+00 0.000D+00 0.000D+00 0.100D+01
 Coeff:      0.406D-02-0.459D-01-0.152D+00 0.119D+01
 Gap=     0.526 Goal=   None    Shift=    0.000
 RMSDP=1.61D-05 MaxDP=1.33D-03 DE=-2.88D-03 OVMax= 4.96D-03

 Cycle   5  Pass 1  IDiag  1:
 RMSU=  1.12D-05    CP:  9.77D-01  9.62D-01  8.61D-01  1.23D+00
 E= -204.611969013698     Delta-E=       -0.000066683892 Rises=F Damp=F
 DIIS: error= 2.17D-04 at cycle   5 NSaved=   5.
 NSaved= 5 IEnMin= 5 EnMin= -204.611969013698     IErMin= 5 ErrMin= 2.17D-04
 ErrMax= 2.17D-04  0.00D+00 EMaxC= 1.00D-01 BMatC= 5.74D-06 BMatP= 2.67D-05
 IDIUse=3 WtCom= 9.98D-01 WtEn= 2.17D-03
 Coeff-Com:  0.332D-02-0.284D-01-0.107D+00 0.252D+00 0.880D+00
 Coeff-En:   0.000D+00 0.000D+00 0.000D+00 0.000D+00 0.100D+01
 Coeff:      0.332D-02-0.284D-01-0.107D+00 0.251D+00 0.880D+00
 Gap=     0.527 Goal=   None    Shift=    0.000
 RMSDP=5.94D-06 MaxDP=4.39D-04 DE=-6.67D-05 OVMax= 8.99D-04

 Cycle   6  Pass 1  IDiag  1:
 RMSU=  4.21D-06    CP:  9.77D-01  9.63D-01  8.63D-01  1.31D+00  1.09D+00
 E= -204.611977633527     Delta-E=       -0.000008619829 Rises=F Damp=F
 DIIS: error= 9.53D-05 at cycle   6 NSaved=   6.
 NSaved= 6 IEnMin= 6 EnMin= -204.611977633527     IErMin= 6 ErrMin= 9.53D-05
 ErrMax= 9.53D-05  0.00D+00 EMaxC= 1.00D-01 BMatC= 3.34D-07 BMatP= 5.74D-06
 IDIUse=1 WtCom= 1.00D+00 WtEn= 0.00D+00
 Coeff-Com: -0.635D-03 0.729D-02 0.255D-01-0.151D+00-0.105D+00 0.122D+01
 Coeff:     -0.635D-03 0.729D-02 0.255D-01-0.151D+00-0.105D+00 0.122D+01
 Gap=     0.527 Goal=   None    Shift=    0.000
 RMSDP=2.18D-06 MaxDP=1.77D-04 DE=-8.62D-06 OVMax= 6.74D-04

 Cycle   7  Pass 1  IDiag  1:
 RMSU=  8.31D-07    CP:  9.77D-01  9.63D-01  8.64D-01  1.33D+00  1.22D+00
                    CP:  1.27D+00
 E= -204.611978607724     Delta-E=       -0.000000974198 Rises=F Damp=F
 DIIS: error= 1.02D-05 at cycle   7 NSaved=   7.
 NSaved= 7 IEnMin= 7 EnMin= -204.611978607724     IErMin= 7 ErrMin= 1.02D-05
 ErrMax= 1.02D-05  0.00D+00 EMaxC= 1.00D-01 BMatC= 1.35D-08 BMatP= 3.34D-07
 IDIUse=1 WtCom= 1.00D+00 WtEn= 0.00D+00
 Coeff-Com: -0.423D-04 0.124D-03-0.726D-04 0.196D-01-0.235D-01-0.261D+00
 Coeff-Com:  0.126D+01
 Coeff:     -0.423D-04 0.124D-03-0.726D-04 0.196D-01-0.235D-01-0.261D+00
 Coeff:      0.126D+01
 Gap=     0.527 Goal=   None    Shift=    0.000
 RMSDP=4.30D-07 MaxDP=2.28D-05 DE=-9.74D-07 OVMax= 9.33D-05

 Cycle   8  Pass 1  IDiag  1:
 RMSU=  1.63D-07    CP:  9.77D-01  9.63D-01  8.63D-01  1.33D+00  1.24D+00
                    CP:  1.33D+00  1.27D+00
 E= -204.611978636939     Delta-E=       -0.000000029214 Rises=F Damp=F
 DIIS: error= 1.04D-06 at cycle   8 NSaved=   8.
 NSaved= 8 IEnMin= 8 EnMin= -204.611978636939     IErMin= 8 ErrMin= 1.04D-06
 ErrMax= 1.04D-06  0.00D+00 EMaxC= 1.00D-01 BMatC= 1.36D-10 BMatP= 1.35D-08
 IDIUse=1 WtCom= 1.00D+00 WtEn= 0.00D+00
 Coeff-Com:  0.113D-04-0.958D-04-0.359D-03-0.173D-03 0.317D-02 0.187D-01
 Coeff-Com: -0.173D+00 0.115D+01
 Coeff:      0.113D-04-0.958D-04-0.359D-03-0.173D-03 0.317D-02 0.187D-01
 Coeff:     -0.173D+00 0.115D+01
 Gap=     0.527 Goal=   None    Shift=    0.000
 RMSDP=4.01D-08 MaxDP=2.11D-06 DE=-2.92D-08 OVMax= 5.71D-06

 Cycle   9  Pass 1  IDiag  1:
 RMSU=  2.42D-08    CP:  9.77D-01  9.63D-01  8.63D-01  1.33D+00  1.24D+00
                    CP:  1.33D+00  1.27D+00  1.15D+00
 E= -204.611978637167     Delta-E=       -0.000000000229 Rises=F Damp=F
 DIIS: error= 2.52D-07 at cycle   9 NSaved=   9.
 NSaved= 9 IEnMin= 9 EnMin= -204.611978637167     IErMin= 9 ErrMin= 2.52D-07
 ErrMax= 2.52D-07  0.00D+00 EMaxC= 1.00D-01 BMatC= 3.13D-12 BMatP= 1.36D-10
 IDIUse=1 WtCom= 1.00D+00 WtEn= 0.00D+00
 Coeff-Com: -0.165D-05 0.197D-04 0.769D-04-0.219D-03-0.568D-03 0.658D-04
 Coeff-Com:  0.191D-01-0.281D+00 0.126D+01
 Coeff:     -0.165D-05 0.197D-04 0.769D-04-0.219D-03-0.568D-03 0.658D-04
 Coeff:      0.191D-01-0.281D+00 0.126D+01
 Gap=     0.527 Goal=   None    Shift=    0.000
 RMSDP=7.52D-09 MaxDP=3.79D-07 DE=-2.29D-10 OVMax= 1.05D-06

 SCF Done:  E(RHF) =  -204.611978637     A.U. after    9 cycles
            NFock=  9  Conv=0.75D-08     -V/T= 2.0025
 KE= 2.041007097695D+02 PE=-7.372730741141D+02 EE= 1.955238624220D+02
 Leave Link  502 at Sun Sep 28 20:46:13 2025, MaxMem=  1572864000 cpu:              70.3 elap:               8.9
 (Enter /software/sse/easybuild/prefix/software/Gaussian/16.C.01-avx2-nsc1/g16/l801.exe)
 Range of M.O.s used for correlation:     1   322
 NBasis=   322 NAE=    16 NBE=    16 NFC=     0 NFV=     0
 NROrb=    322 NOA=    16 NOB=    16 NVA=   306 NVB=   306

 **** Warning!!: The largest alpha MO coefficient is  0.51709580D+02

 Leave Link  801 at Sun Sep 28 20:46:14 2025, MaxMem=  1572864000 cpu:               0.2 elap:               0.0
 (Enter /software/sse/easybuild/prefix/software/Gaussian/16.C.01-avx2-nsc1/g16/l1101.exe)
 Using compressed storage, NAtomX=    10.
 Will process     11 centers per pass.
 Leave Link 1101 at Sun Sep 28 20:46:14 2025, MaxMem=  1572864000 cpu:               1.7 elap:               0.2
 (Enter /software/sse/easybuild/prefix/software/Gaussian/16.C.01-avx2-nsc1/g16/l1102.exe)
 Symmetrizing basis deriv contribution to polar:
 IMax=3 JMax=2 DiffMx= 0.00D+00
 Leave Link 1102 at Sun Sep 28 20:46:15 2025, MaxMem=  1572864000 cpu:               0.3 elap:               0.1
 (Enter /software/sse/easybuild/prefix/software/Gaussian/16.C.01-avx2-nsc1/g16/l1110.exe)
 Forming Gx(P) for the SCF density, NAtomX=    10.
 Integral derivatives from FoFJK, PRISM(SPDF).
 Do as many integral derivatives as possible in FoFJK.
 G2DrvN: MDV=    1572862854.
 G2DrvN: will do    11 centers at a time, making    1 passes.
 Calling FoFCou, ICntrl=  3107 FMM=F I1Cent=   0 AccDes= 0.00D+00.
 FoFJK:  IHMeth= 1 ICntrl=    3107 DoSepK=F KAlg= 0 I1Cent=           0 FoldK=F
 IRaf=         0 NMat=       1 IRICut=       1 DoRegI=T DoRafI=F ISym2E= 1 IDoP0=0 IntGTp=1.
 FoFCou: FMM=F IPFlag=           0 FMFlag=      100000 FMFlg1=           0
         NFxFlg=           0 DoJE=F BraDBF=F KetDBF=F FulRan=T
         wScrn=  0.000000 ICntrl=      3107 IOpCl=  0 I1Cent=           0 NGrid=           0
         NMat0=    1 NMatS0=      1 NMatT0=    0 NMatD0=    1 NMtDS0=    0 NMtDT0=    0
 Petite list used in FoFCou.
 End of G2Drv F.D. properties file   721 does not exist.
 End of G2Drv F.D. properties file   722 does not exist.
 End of G2Drv F.D. properties file   788 does not exist.
 Leave Link 1110 at Sun Sep 28 20:46:22 2025, MaxMem=  1572864000 cpu:              56.9 elap:               7.2
 (Enter /software/sse/easybuild/prefix/software/Gaussian/16.C.01-avx2-nsc1/g16/l1002.exe)
 Minotr:  Closed shell wavefunction.
          IDoAtm=1111111111
          Direct CPHF calculation.
          Differentiating once with respect to electric field.
                with respect to dipole field.
          Differentiating once with respect to nuclear coordinates.
          Using symmetry in CPHF.
          Requested convergence is 1.0D-08 RMS, and 1.0D-07 maximum.
          Secondary convergence is 1.0D-12 RMS, and 1.0D-12 maximum.
          NewPWx=T KeepS1=F KeepF1=F KeepIn=T MapXYZ=F SortEE=F KeepMc=T.
 Two-electron integrals replicated using symmetry.
          MDV=    1572864000 using IRadAn=       1.
          Solving linear equations simultaneously, MaxMat=     384.
 FoF2E skips out because all densities are zero.
 FoFJK:  IHMeth= 1 ICntrl=       0 DoSepK=F KAlg= 0 I1Cent=           0 FoldK=F
 IRaf= 990000000 NMat=       9 IRICut=      22 DoRegI=T DoRafI=T ISym2E= 2 IDoP0=0 IntGTp=1.
 FoFCou: FMM=F IPFlag=           0 FMFlag=      100000 FMFlg1=           0
         NFxFlg=           0 DoJE=F BraDBF=F KetDBF=F FulRan=T
         wScrn=  0.000000 ICntrl=         0 IOpCl=  0 I1Cent=           0 NGrid=           0
         NMat0=    9 NMatS0=      9 NMatT0=    0 NMatD0=    9 NMtDS0=    0 NMtDT0=    0
 Integrals replicated using symmetry in FoFCou.
 Raff kept on since  99.46% of shell-pairs survive, threshold=   0.20 IRatSp=99.
          There are    12 degrees of freedom in the 1st order CPHF.  IDoFFX=4 NUNeed=    12.
     12 vectors produced by pass  0 Test12= 4.08D-14 8.33D-09 XBig12= 9.22D+00 1.54D+00.
 AX will form    12 AO Fock derivatives at one time.
     12 vectors produced by pass  1 Test12= 4.08D-14 8.33D-09 XBig12= 3.52D-01 1.12D-01.
     12 vectors produced by pass  2 Test12= 4.08D-14 8.33D-09 XBig12= 6.31D-03 1.37D-02.
     12 vectors produced by pass  3 Test12= 4.08D-14 8.33D-09 XBig12= 1.70D-04 2.78D-03.
     12 vectors produced by pass  4 Test12= 4.08D-14 8.33D-09 XBig12= 2.67D-06 3.31D-04.
     12 vectors produced by pass  5 Test12= 4.08D-14 8.33D-09 XBig12= 3.50D-08 3.92D-05.
     12 vectors produced by pass  6 Test12= 4.08D-14 8.33D-09 XBig12= 3.12D-10 2.70D-06.
      9 vectors produced by pass  7 Test12= 4.08D-14 8.33D-09 XBig12= 2.39D-12 2.12D-07.
      3 vectors produced by pass  8 Test12= 4.08D-14 8.33D-09 XBig12= 2.05D-14 1.74D-08.
 InvSVY:  IOpt=1 It=  1 EMax= 1.78D-15
 Solved reduced A of dimension    96 with    12 vectors.
 FullF1:  Do perturbations      1 to      12.
 Isotropic polarizability for W=    0.000000       33.15 Bohr**3.
 End of Minotr F.D. properties file   721 does not exist.
 End of Minotr F.D. properties file   722 does not exist.
 End of Minotr F.D. properties file   788 does not exist.
 Leave Link 1002 at Sun Sep 28 20:47:51 2025, MaxMem=  1572864000 cpu:             699.1 elap:              88.0
 (Enter /software/sse/easybuild/prefix/software/Gaussian/16.C.01-avx2-nsc1/g16/l601.exe)
 Copying SCF densities to generalized density rwf, IOpCl= 0 IROHF=0.
 SCF density gives NOpUse= 12 NOpAll= 12.

 **********************************************************************

            Population analysis using the SCF Density.

 **********************************************************************

 Orbital symmetries:
 BldTbl:  Degeneracy threshold= 1.00D-02
       Occupied  (E') (E') (A1') (A1') (A1') (E') (E') (A1') (E')
                 (E') (E') (E') (A2') (A2") (E") (E")
       Virtual   (A1') (E') (E') (A2") (E') (E') (A1') (A2') (A2")
                 (A1') (E") (E") (E') (E') (A1') (E') (E') (E')
                 (E') (A2') (A2") (E") (E") (E') (E') (A1') (E')
                 (E') (E') (E') (A1') (A1") (A2") (E") (E") (E')
                 (E') (A1') (E') (E') (A2') (E') (E') (A1') (E")
                 (E") (E') (E') (A2") (A2') (A1') (A2') (E') (E')
                 (E") (E") (E') (E') (A2") (A1') (E') (E') (A1')
                 (A1") (E") (E") (E') (E') (A2') (E') (E') (A1')
                 (E') (E') (A2") (E") (E") (E') (E') (A1') (E")
                 (E") (A2') (A1') (E") (E") (E') (E') (E') (E')
                 (E') (E') (A2") (E") (E") (A2') (A1') (A1") (E')
                 (E') (A2") (A1') (E") (E") (A1') (A2') (E') (E')
                 (A1") (E') (E') (E') (E') (E") (E") (E') (E')
                 (A2') (E") (E") (A1') (E') (E') (A1") (A2") (E')
                 (E') (A2") (E") (E") (A2') (A1') (E') (E') (E')
                 (E') (A1') (A2') (E") (E") (E') (E') (A2") (E')
                 (E') (E") (E") (E') (E') (A1') (A2') (A1') (A2")
                 (A1") (A2') (E') (E') (E") (E") (A1') (E') (E')
                 (A2") (E") (E") (E') (E') (A1') (E') (E') (A2')
                 (E') (E') (E") (E") (E') (E') (A1") (E") (E")
                 (A2') (A1') (E') (E') (A2') (A2") (A1') (E') (E')
                 (E') (E') (E") (E") (A2") (E') (E') (A2') (E")
                 (E") (A1') (A1') (E') (E') (E") (E") (E') (E')
                 (A2") (A1") (A1') (E') (E') (A2') (E') (E') (E")
                 (E") (E") (E") (A2") (E") (E") (A1") (A2") (E')
                 (E') (A1') (A1') (E") (E") (E') (E') (E') (E')
                 (A2') (E") (E") (A2') (E') (E') (A1') (A2") (A1')
                 (A1") (E') (E') (E") (E") (A2') (E') (E') (A2')
                 (A1') (E') (E') (A1") (E') (E') (A2') (E') (E')
                 (A2") (E') (E') (E") (E") (A2") (A1') (E") (E")
                 (E') (E') (E") (E") (A2') (A1') (E") (E") (A1")
                 (E') (E') (A2") (E") (E") (E') (E') (A1') (A2')
                 (E') (E') (E') (E') (A1') (E') (E') (A1') (E')
                 (E') (A2') (E') (E') (A2') (A1') (E') (E') (A1')
 The electronic state is 1-A1'.
 Alpha  occ. eigenvalues --  -15.79891 -15.79891 -15.79887 -11.61410  -1.54532
 Alpha  occ. eigenvalues --   -1.39797  -1.39797  -1.08380  -0.98099  -0.98099
 Alpha  occ. eigenvalues --   -0.86488  -0.86488  -0.85851  -0.81541  -0.63041
 Alpha  occ. eigenvalues --   -0.63041
 Alpha virt. eigenvalues --   -0.10335  -0.07962  -0.07962  -0.05593  -0.05323
 Alpha virt. eigenvalues --   -0.05323  -0.02131  -0.01721  -0.01187  -0.00319
 Alpha virt. eigenvalues --    0.00131   0.00131   0.00363   0.00363   0.02315
 Alpha virt. eigenvalues --    0.03536   0.03536   0.03901   0.03901   0.07696
 Alpha virt. eigenvalues --    0.08391   0.09392   0.09392   0.10436   0.10436
 Alpha virt. eigenvalues --    0.13465   0.16432   0.16432   0.17407   0.17407
 Alpha virt. eigenvalues --    0.17461   0.18429   0.21228   0.21331   0.21331
 Alpha virt. eigenvalues --    0.21983   0.21983   0.22953   0.24218   0.24218
 Alpha virt. eigenvalues --    0.24228   0.26737   0.26737   0.28430   0.28655
 Alpha virt. eigenvalues --    0.28655   0.29955   0.29955   0.33685   0.33913
 Alpha virt. eigenvalues --    0.34963   0.36832   0.38600   0.38600   0.41099
 Alpha virt. eigenvalues --    0.41099   0.46165   0.46165   0.48083   0.48127
 Alpha virt. eigenvalues --    0.48300   0.48300   0.52672   0.52896   0.54631
 Alpha virt. eigenvalues --    0.54631   0.55005   0.55005   0.56596   0.57124
 Alpha virt. eigenvalues --    0.57124   0.66100   0.67892   0.67892   0.69742
 Alpha virt. eigenvalues --    0.72344   0.72344   0.73644   0.73644   0.73864
 Alpha virt. eigenvalues --    0.79084   0.79084   0.81191   0.82539   0.82973
 Alpha virt. eigenvalues --    0.82973   0.83152   0.83152   0.83988   0.83988
 Alpha virt. eigenvalues --    0.88854   0.88854   0.89080   0.90368   0.90368
 Alpha virt. eigenvalues --    0.91421   0.93709   0.94963   0.96113   0.96113
 Alpha virt. eigenvalues --    0.97526   1.04723   1.05860   1.05860   1.06691
 Alpha virt. eigenvalues --    1.07728   1.07773   1.07773   1.11238   1.11947
 Alpha virt. eigenvalues --    1.11947   1.14096   1.14096   1.14517   1.14517
 Alpha virt. eigenvalues --    1.18614   1.18614   1.19870   1.20338   1.20338
 Alpha virt. eigenvalues --    1.22335   1.22871   1.22871   1.26493   1.28715
 Alpha virt. eigenvalues --    1.32305   1.32305   1.33134   1.36411   1.36411
 Alpha virt. eigenvalues --    1.36894   1.37431   1.38650   1.38650   1.49360
 Alpha virt. eigenvalues --    1.49360   1.56918   1.57837   1.61673   1.61673
 Alpha virt. eigenvalues --    1.62769   1.62769   1.64526   1.82544   1.82544
 Alpha virt. eigenvalues --    1.83731   1.83731   1.85396   1.85396   1.85600
 Alpha virt. eigenvalues --    1.85853   1.88045   1.89806   1.92342   1.96195
 Alpha virt. eigenvalues --    1.98842   1.98842   2.02359   2.02359   2.11442
 Alpha virt. eigenvalues --    2.14736   2.14736   2.21657   2.22245   2.22245
 Alpha virt. eigenvalues --    2.25752   2.25752   2.26448   2.29691   2.29691
 Alpha virt. eigenvalues --    2.36323   2.36895   2.36895   2.40245   2.40245
 Alpha virt. eigenvalues --    2.43015   2.43015   2.47869   2.53186   2.53186
 Alpha virt. eigenvalues --    2.64458   2.67899   2.70751   2.70751   2.81675
 Alpha virt. eigenvalues --    2.88743   2.96442   2.99308   2.99308   3.26182
 Alpha virt. eigenvalues --    3.26182   3.44009   3.44009   3.53879   3.57241
 Alpha virt. eigenvalues --    3.57241   3.58277   3.58375   3.58375   3.59693
 Alpha virt. eigenvalues --    3.77034   3.81444   3.81444   3.82349   3.82349
 Alpha virt. eigenvalues --    3.87669   3.87669   3.90433   3.92278   3.93491
 Alpha virt. eigenvalues --    3.94678   3.94678   4.06393   4.07151   4.07151
 Alpha virt. eigenvalues --    4.08652   4.08652   4.12319   4.12319   4.16575
 Alpha virt. eigenvalues --    4.19424   4.19424   4.25953   4.29098   4.30510
 Alpha virt. eigenvalues --    4.30510   4.31902   4.33967   4.35751   4.35751
 Alpha virt. eigenvalues --    4.39557   4.39557   4.50597   4.50597   4.52704
 Alpha virt. eigenvalues --    4.56807   4.56807   4.66329   4.67781   4.67781
 Alpha virt. eigenvalues --    4.67934   4.71139   4.73216   4.75837   4.79746
 Alpha virt. eigenvalues --    4.79746   4.87515   4.87515   4.92275   4.93871
 Alpha virt. eigenvalues --    4.93871   5.01655   5.04822   5.08275   5.08275
 Alpha virt. eigenvalues --    5.20746   5.21222   5.21222   5.25393   5.30041
 Alpha virt. eigenvalues --    5.30041   5.33174   5.35799   5.35799   5.39204
 Alpha virt. eigenvalues --    5.39204   5.39647   5.45215   5.54009   5.54009
 Alpha virt. eigenvalues --    5.54883   5.54883   5.70336   5.70336   5.76013
 Alpha virt. eigenvalues --    5.76607   5.80673   5.80673   5.87211   5.87287
 Alpha virt. eigenvalues --    5.87287   5.93857   6.11896   6.11896   6.14896
 Alpha virt. eigenvalues --    6.14896   6.18235   6.36258   6.43290   6.43290
 Alpha virt. eigenvalues --    6.56025   6.56025   6.60879   6.83449   6.83449
 Alpha virt. eigenvalues --    7.22549   7.32688   7.32688   7.46358   7.60422
 Alpha virt. eigenvalues --    7.60422   7.94631  16.70501  17.67472  17.67472
 Alpha virt. eigenvalues --   18.57154
          Condensed to atoms (all electrons):
               1          2          3          4          5          6
     1  C    4.844104   0.301805   0.301805   0.301805  -0.070914  -0.070914
     2  N    0.301805   6.321101  -0.120928  -0.120928   0.010690  -0.024927
     3  N    0.301805  -0.120928   6.321101  -0.120928   0.436903   0.436903
     4  N    0.301805  -0.120928  -0.120928   6.321101  -0.024927   0.010690
     5  H   -0.070914   0.010690   0.436903  -0.024927   0.575781  -0.092200
     6  H   -0.070914  -0.024927   0.436903   0.010690  -0.092200   0.575781
     7  H   -0.070914   0.436903   0.010690  -0.024927  -0.000147  -0.000013
     8  H   -0.070914   0.436903  -0.024927   0.010690  -0.000013  -0.002356
     9  H   -0.070914  -0.024927   0.010690   0.436903  -0.000013  -0.000147
    10  H   -0.070914   0.010690  -0.024927   0.436903  -0.002356  -0.000013
               7          8          9         10
     1  C   -0.070914  -0.070914  -0.070914  -0.070914
     2  N    0.436903   0.436903  -0.024927   0.010690
     3  N    0.010690  -0.024927   0.010690  -0.024927
     4  N   -0.024927   0.010690   0.436903   0.436903
     5  H   -0.000147  -0.000013  -0.000013  -0.002356
     6  H   -0.000013  -0.002356  -0.000147  -0.000013
     7  H    0.575781  -0.092200  -0.002356  -0.000013
     8  H   -0.092200   0.575781  -0.000013  -0.000147
     9  H   -0.002356  -0.000013   0.575781  -0.092200
    10  H   -0.000013  -0.000147  -0.092200   0.575781
 Mulliken charges:
               1
     1  C    0.675968
     2  N   -0.226383
     3  N   -0.226383
     4  N   -0.226383
     5  H    0.167197
     6  H    0.167197
     7  H    0.167197
     8  H    0.167197
     9  H    0.167197
    10  H    0.167197
 Sum of Mulliken charges =   1.00000
 Mulliken charges with hydrogens summed into heavy atoms:
               1
     1  C    0.675968
     2  N    0.108011
     3  N    0.108011
     4  N    0.108011
 APT charges:
               1
     1  C    1.589471
     2  N   -0.779281
     3  N   -0.779281
     4  N   -0.779281
     5  H    0.291395
     6  H    0.291395
     7  H    0.291395
     8  H    0.291395
     9  H    0.291395
    10  H    0.291395
 Sum of APT charges =   1.00000
 APT charges with hydrogens summed into heavy atoms:
               1
     1  C    1.589471
     2  N   -0.196490
     3  N   -0.196490
     4  N   -0.196490
 DipInt: DoE/N= T F RetVal/Mat= T F Init=T NMatP=  1 IDeriv=0 Min/MaxMlt=  0  4
 Entering OneElI...
 OneElI was handed  1572513244 working-precision words.
 Multipole integrals L=0 to 4 MinM= 0 MaxM= 0.
 Requested accuracy = 0.1000D-12
 ShPair: Thresh= 1.00D-13 NBox=     0 BxSize= 0.00D+00 RnKept= 7.80D+00
         NSMCal=                 6105 NSMKep=                6093
 PrmmSu-InSpLW:  IPartL=    0 NPrtUS=    1 NPrtUL=    1 DoSpLW=F IThBeg=    0 IThEnd=    0 NThAct=    1.
 PrSmSu:  IncTry=   512 NBBP=           6093 NTPThr=   100 NPartT=    1 Incr=          60 LDynOK=F GPUOK=F.
 PrsmSu:  NPrtUS=   1 ThrOK=F IAlg=2 LenDen=           0 ISkipM=0 DoSpLW=F IThBeg=    0 IThEnd=    0.
 Prism:   IPart=     0 DynPar=F LinDyn=F Incr=          60.
 PRISM was handed  1572100044 working-precision words and  6093 shell-pairs
 IPart=  0 NShTot=        6093 NBatch=          71 AvBLen=        85.8
 PrsmSu-ThDecC:  IPartSL=    0    0 NPrtUSL=    1    1 IThBeg=    0 IThEnd=    0 CPU=   -1 GPU=   -1 NThAct=    1.
 PrSmSu:  NxtVal=             61.
 Electronic moments (au):
        -32.00000000          0.00000000          0.00000000          0.00000000
       -119.84242420       -119.84242420        -19.67844096          0.00000000
          0.00000000          0.00000000          0.00000000       -109.78359677
          0.00000000         -0.00000000        109.78359677         -0.00000000
          0.00000000          0.00000000          0.00000000          0.00000000
      -1054.69366822      -1054.69366822        -65.78221953          0.00000000
          0.00000000          0.00000000          0.00000000          0.00000000
          0.00000000       -351.56455607        -83.51159930        -83.51159930
          0.00000000          0.00000000          0.00000000
 Electronic spatial extent (au):  <R**2>=            259.3633
 DipInt: DoE/N= F T RetVal/Mat= T F Init=T NMatP=  1 IDeriv=0 Min/MaxMlt=  0  4
 Nuclear    moments (au):
         33.00000000         -0.00000000         -0.00000000         -0.00000000
        112.82256221        112.82256221          0.00000000         -0.00000000
         -0.00000000         -0.00000000         -0.00000000        111.51613794
         -0.00000000          0.00000000       -111.51613794          0.00000000
          0.00000000          0.00000000         -0.00000000         -0.00000000
        849.20352860        849.20352860          0.00000000         -0.00000000
         -0.00000000         -0.00000000         -0.00000000         -0.00000000
         -0.00000000        283.06784287          0.00000000          0.00000000
         -0.00000000         -0.00000000          0.00000000
 Total      moments (au):
          1.00000000          0.00000000         -0.00000000          0.00000000
         -7.01986199         -7.01986199        -19.67844096          0.00000000
         -0.00000000         -0.00000000          0.00000000          1.73254117
          0.00000000          0.00000000         -1.73254117          0.00000000
          0.00000000          0.00000000         -0.00000000         -0.00000000
       -205.49013962       -205.49013962        -65.78221953          0.00000000
         -0.00000000          0.00000000         -0.00000000          0.00000000
          0.00000000        -68.49671321        -83.51159930        -83.51159930
         -0.00000000         -0.00000000          0.00000000
 Charge=              1.0000 electrons
 Dipole moment (field-independent basis, Debye):
    X=              0.0000    Y=             -0.0000    Z=              0.0000  Tot=              0.0000
 Quadrupole moment (field-independent basis, Debye-Ang):
   XX=             -9.4420   YY=             -9.4420   ZZ=            -26.4682
   XY=              0.0000   XZ=             -0.0000   YZ=             -0.0000
 Traceless Quadrupole moment (field-independent basis, Debye-Ang):
   XX=              5.6754   YY=              5.6754   ZZ=            -11.3508
   XY=              0.0000   XZ=             -0.0000   YZ=             -0.0000
 Octapole moment (field-independent basis, Debye-Ang**2):
  XXX=              0.0000  YYY=              1.2332  ZZZ=              0.0000  XYY=              0.0000
  XXY=             -1.2332  XXZ=              0.0000  XZZ=              0.0000  YZZ=              0.0000
  YYZ=             -0.0000  XYZ=             -0.0000
 Hexadecapole moment (field-independent basis, Debye-Ang**3):
 XXXX=            -77.3974 YYYY=            -77.3974 ZZZZ=            -24.7767 XXXY=              0.0000
 XXXZ=             -0.0000 YYYX=              0.0000 YYYZ=             -0.0000 ZZZX=              0.0000
 ZZZY=              0.0000 XXYY=            -25.7991 XXZZ=            -31.4545 YYZZ=            -31.4545
 XXYZ=             -0.0000 YYXZ=             -0.0000 ZZXY=              0.0000
 N-N= 1.330365232854D+02 E-N=-7.372730775287D+02  KE= 2.041007097695D+02
 Symmetry A1   KE= 1.375922792563D+02
 Symmetry A2   KE= 3.359120966708D+00
 Symmetry B1   KE= 5.717917966092D+01
 Symmetry B2   KE= 5.970129885537D+00
 SetAtRh:  ITypeU=  23 NETotI=      -1 ICharg=  0 NETot=      33.
 StAtR1:  I=    1 I1=    1 IA=  6 C=   6.0 OKShel=TTT
                                                  SSP
                                                  222
 StAtR1:  I=    2 I1=    2 IA=  7 C=   7.0 OKShel=TTT
                                                  SSP
                                                  223
 StAtR1:  I=    3 I1=    3 IA=  7 C=   7.0 OKShel=TTT
                                                  SSP
                                                  223
 StAtR1:  I=    4 I1=    4 IA=  7 C=   7.0 OKShel=TTT
                                                  SSP
                                                  223
 StAtR1:  I=    5 I1=    5 IA=  1 C=   1.0 OKShel=T
                                                  S
                                                  1
 StAtR1:  I=    6 I1=    6 IA=  1 C=   1.0 OKShel=T
                                                  S
                                                  1
 StAtR1:  I=    7 I1=    7 IA=  1 C=   1.0 OKShel=T
                                                  S
                                                  1
 StAtR1:  I=    8 I1=    8 IA=  1 C=   1.0 OKShel=T
                                                  S
                                                  1
 StAtR1:  I=    9 I1=    9 IA=  1 C=   1.0 OKShel=T
                                                  S
                                                  1
 StAtR1:  I=   10 I1=   10 IA=  1 C=   1.0 OKShel=T
                                                  S
                                                  1
          I=    1 IA=  6 I1=    1 NAtG=23 NE=   6.000 C=   6.000 Err= 1.75D-11
          I=    2 IA=  7 I1=    2 NAtG=22 NE=   7.000 C=   7.000 Err= 6.08D-13
          I=    3 IA=  7 I1=    3 NAtG=22 NE=   7.000 C=   7.000 Err= 6.08D-13
          I=    4 IA=  7 I1=    4 NAtG=22 NE=   7.000 C=   7.000 Err= 6.08D-13
          I=    5 IA=  1 I1=    5 NAtG=20 NE=   1.000 C=   1.000 Err= 2.80D-12
          I=    6 IA=  1 I1=    6 NAtG=20 NE=   1.000 C=   1.000 Err= 2.80D-12
          I=    7 IA=  1 I1=    7 NAtG=20 NE=   1.000 C=   1.000 Err= 2.80D-12
          I=    8 IA=  1 I1=    8 NAtG=20 NE=   1.000 C=   1.000 Err= 2.80D-12
          I=    9 IA=  1 I1=    9 NAtG=20 NE=   1.000 C=   1.000 Err= 2.80D-12
          I=   10 IA=  1 I1=   10 NAtG=20 NE=   1.000 C=   1.000 Err= 2.80D-12
 Pruned (  99, 590) grid will be used in numerical quadrature.
 IPart=  0 IRanGd=          0 ScrnBf=T ScrnGd=T RCrit=4.00D+00 DoMicB=T.
 CutRad = 1000.00    CtRdIn =    0.00    XCrit =  15.00   ICut = 0
 Pruned (  99, 590) grid will be used in numerical quadrature.
 Pruned (  99, 590) grid will be used in numerical quadrature.
 Pruned (  99, 590) grid will be used in numerical quadrature.
 IPart=  5 IRanGd=          0 ScrnBf=T ScrnGd=T RCrit=4.00D+00 DoMicB=T.
 Pruned (  99, 590) grid will be used in numerical quadrature.
 Pruned (  99, 590) grid will be used in numerical quadrature.
 IPart=  3 IRanGd=          0 ScrnBf=T ScrnGd=T RCrit=4.00D+00 DoMicB=T.
 Pruned (  99, 590) grid will be used in numerical quadrature.
 IPart=  0 Atom number   1 atomic number  6 has       23114 grid points.
 CutRad = 1000.00    CtRdIn =    0.00    XCrit =  15.00   ICut = 0
 IPart=  4 IRanGd=          0 ScrnBf=T ScrnGd=T RCrit=4.00D+00 DoMicB=T.
 IPart=  0 Atom   1 batch    1 overlaps   10 atoms,   110 shells and    10 DB shells.   NGrid=      2408
 IPart=  7 IRanGd=          0 ScrnBf=T ScrnGd=T RCrit=4.00D+00 DoMicB=T.
 Pruned (  99, 590) grid will be used in numerical quadrature.
 IPart=  2 IRanGd=          0 ScrnBf=T ScrnGd=T RCrit=4.00D+00 DoMicB=T.
 Symmetry reduced    86 angular points to    86 for atom    1.
 CutRad = 1000.00    CtRdIn =    0.00    XCrit =  15.00   ICut = 0
 CutRad = 1000.00    CtRdIn =    0.00    XCrit =  15.00   ICut = 0
 IPart=  6 IRanGd=          0 ScrnBf=T ScrnGd=T RCrit=4.00D+00 DoMicB=T.
 Pruned (  99, 590) grid will be used in numerical quadrature.
 CutRad = 1000.00    CtRdIn =    0.00    XCrit =  15.00   ICut = 0
 CutRad = 1000.00    CtRdIn =    0.00    XCrit =  15.00   ICut = 0
 CutRad = 1000.00    CtRdIn =    0.00    XCrit =  15.00   ICut = 0
 IPart=  1 IRanGd=          0 ScrnBf=T ScrnGd=T RCrit=4.00D+00 DoMicB=T.
 CutRad = 1000.00    CtRdIn =    0.00    XCrit =  15.00   ICut = 0
 Pruned (  99, 590) grid will be used in numerical quadrature.
 IPart=  3 Atom number   1 atomic number  6 has       23114 grid points.
 IPart=  3 Atom   1 batch    2 overlaps   10 atoms,   110 shells and    10 DB shells.   NGrid=      2522
 Symmetry reduced   194 angular points to   194 for atom    1.
 Pruned (  99, 590) grid will be used in numerical quadrature.
 Pruned (  99, 590) grid will be used in numerical quadrature.
 Pruned (  99, 590) grid will be used in numerical quadrature.
 Pruned (  99, 590) grid will be used in numerical quadrature.
 IPart=  6 Atom number   1 atomic number  6 has       23114 grid points.
 IPart=  1 Atom number   1 atomic number  6 has       23114 grid points.
 IPart=  6 Atom   1 batch    5 overlaps   10 atoms,   110 shells and    10 DB shells.   NGrid=      1180
 IPart=  7 Atom number   1 atomic number  6 has       23114 grid points.
 Pruned (  99, 590) grid will be used in numerical quadrature.
 Symmetry reduced   590 angular points to   590 for atom    1.
 IPart=  4 Atom number   1 atomic number  6 has       23114 grid points.
 IPart=  1 Atom   1 batch    7 overlaps   10 atoms,   110 shells and    10 DB shells.   NGrid=      1180
 IPart=  4 Atom   1 batch    6 overlaps   10 atoms,   110 shells and    10 DB shells.   NGrid=      1180
 Symmetry reduced   590 angular points to   590 for atom    1.
 IPart=  7 Atom   1 batch    4 overlaps   10 atoms,   110 shells and    10 DB shells.   NGrid=      1180
 Pruned (  99, 590) grid will be used in numerical quadrature.
 IPart=  2 Atom number   1 atomic number  6 has       23114 grid points.
 IPart=  5 Atom number   1 atomic number  6 has       23114 grid points.
 Symmetry reduced   590 angular points to   590 for atom    1.
 IPart=  5 Atom   1 batch    8 overlaps   10 atoms,   110 shells and    10 DB shells.   NGrid=      1180
 Symmetry reduced   590 angular points to   590 for atom    1.
 IPart=  2 Atom   1 batch    3 overlaps   10 atoms,   110 shells and    10 DB shells.   NGrid=      2114
 Symmetry reduced   590 angular points to   590 for atom    1.
 Symmetry reduced   302 angular points to   302 for atom    1.
 IPart=  4 Atom   1 batch    9 overlaps   10 atoms,   110 shells and    10 DB shells.   NGrid=      1180
 IPart=  6 Atom   1 batch   10 overlaps   10 atoms,   110 shells and    10 DB shells.   NGrid=      1180
 IPart=  1 Atom   1 batch   11 overlaps   10 atoms,   109 shells and    10 DB shells.   NGrid=      1180
 IPart=  7 Atom   1 batch   12 overlaps   10 atoms,   109 shells and    10 DB shells.   NGrid=       590
 IPart=  5 Atom   1 batch   13 overlaps   10 atoms,   109 shells and    10 DB shells.   NGrid=       604
 Symmetry reduced   302 angular points to   302 for atom    1.
 IPart=  7 Atom   1 batch   14 overlaps   10 atoms,   106 shells and    10 DB shells.   NGrid=       604
 Symmetry reduced   302 angular points to   302 for atom    1.
 IPart=  5 Atom   1 batch   15 overlaps   10 atoms,   103 shells and    10 DB shells.   NGrid=       604
 IPart=  7 Atom   1 batch   16 overlaps   10 atoms,    93 shells and    10 DB shells.   NGrid=       604
 IPart=  2 Atom   1 batch   17 overlaps   10 atoms,    78 shells and    10 DB shells.   NGrid=       604
 IPart=  1 Atom   1 batch   18 overlaps   10 atoms,    60 shells and    10 DB shells.   NGrid=       604
 Symmetry reduced   302 angular points to   302 for atom    1.
 IPart=  5 Atom   1 batch   19 overlaps   10 atoms,    44 shells and    10 DB shells.   NGrid=       604
 IPart=  5 Atom   1 batch   20 overlaps   10 atoms,    27 shells and     6 DB shells.   NGrid=       604
 IPart=  5 Atom   1 batch   21 overlaps   10 atoms,    14 shells and     0 DB shells.   NGrid=       604
 IPart=  1 Atom   1 batch   22 overlaps   10 atoms,     6 shells and     0 DB shells.   NGrid=       604
 Pruned (  99, 590) grid will be used in numerical quadrature.
 IPart=  0 Atom number   2 atomic number  7 has       23416 grid points.
 IPart=  0 Atom   2 batch    1 overlaps   10 atoms,   104 shells and    10 DB shells.   NGrid=      2408
 Symmetry reduced    86 angular points to    86 for atom    2.
 Pruned (  99, 590) grid will be used in numerical quadrature.
 IPart=  1 Atom number   2 atomic number  7 has       23416 grid points.
 Pruned (  99, 590) grid will be used in numerical quadrature.
 IPart=  1 Atom   2 batch    2 overlaps   10 atoms,   106 shells and    10 DB shells.   NGrid=      2522
 IPart=  5 Atom number   2 atomic number  7 has       23416 grid points.
 Symmetry reduced   194 angular points to   194 for atom    2.
 IPart=  5 Atom   2 batch    3 overlaps   10 atoms,   108 shells and    10 DB shells.   NGrid=      2114
 Symmetry reduced   302 angular points to   302 for atom    2.
 Pruned (  99, 590) grid will be used in numerical quadrature.
 IPart=  6 Atom number   2 atomic number  7 has       23416 grid points.
 IPart=  6 Atom   2 batch    4 overlaps   10 atoms,   108 shells and    10 DB shells.   NGrid=      1180
 Symmetry reduced   590 angular points to   590 for atom    2.
 Pruned (  99, 590) grid will be used in numerical quadrature.
 IPart=  2 Atom number   2 atomic number  7 has       23416 grid points.
 IPart=  2 Atom   2 batch    5 overlaps   10 atoms,   108 shells and    10 DB shells.   NGrid=      1180
 Symmetry reduced   590 angular points to   590 for atom    2.
 Pruned (  99, 590) grid will be used in numerical quadrature.
 IPart=  4 Atom number   2 atomic number  7 has       23416 grid points.
 IPart=  4 Atom   2 batch    6 overlaps   10 atoms,   110 shells and    10 DB shells.   NGrid=      1180
 Symmetry reduced   590 angular points to   590 for atom    2.
 Pruned (  99, 590) grid will be used in numerical quadrature.
 IPart=  7 Atom number   2 atomic number  7 has       23416 grid points.
 IPart=  7 Atom   2 batch    7 overlaps   10 atoms,   110 shells and    10 DB shells.   NGrid=      1180
 Symmetry reduced   590 angular points to   590 for atom    2.
 Pruned (  99, 590) grid will be used in numerical quadrature.
 IPart=  3 Atom number   2 atomic number  7 has       23416 grid points.
 IPart=  3 Atom   2 batch    8 overlaps   10 atoms,   110 shells and    10 DB shells.   NGrid=      1180
 Symmetry reduced   590 angular points to   590 for atom    2.
 IPart=  6 Atom   2 batch    9 overlaps   10 atoms,   110 shells and    10 DB shells.   NGrid=      1180
 IPart=  2 Atom   2 batch   10 overlaps   10 atoms,   110 shells and    10 DB shells.   NGrid=      1180
 IPart=  4 Atom   2 batch   11 overlaps   10 atoms,   110 shells and    10 DB shells.   NGrid=      1180
 IPart=  7 Atom   2 batch   12 overlaps   10 atoms,   109 shells and    10 DB shells.   NGrid=       590
 IPart=  3 Atom   2 batch   13 overlaps   10 atoms,   109 shells and    10 DB shells.   NGrid=       604
 Symmetry reduced   302 angular points to   302 for atom    2.
 IPart=  0 Atom   2 batch   14 overlaps   10 atoms,   109 shells and    10 DB shells.   NGrid=       604
 Symmetry reduced   302 angular points to   302 for atom    2.
 IPart=  7 Atom   2 batch   15 overlaps   10 atoms,   107 shells and    10 DB shells.   NGrid=       604
 Symmetry reduced   302 angular points to   302 for atom    2.
 IPart=  3 Atom   2 batch   16 overlaps   10 atoms,   104 shells and    10 DB shells.   NGrid=       604
 IPart=  5 Atom   2 batch   17 overlaps   10 atoms,    98 shells and    10 DB shells.   NGrid=       604
 IPart=  1 Atom   2 batch   18 overlaps   10 atoms,    84 shells and    10 DB shells.   NGrid=       604
 Symmetry reduced   302 angular points to   302 for atom    2.
 IPart=  7 Atom   2 batch   19 overlaps   10 atoms,    62 shells and    10 DB shells.   NGrid=       604
 IPart=  5 Atom   2 batch   20 overlaps   10 atoms,    41 shells and     9 DB shells.   NGrid=       604
 IPart=  4 Atom   2 batch   21 overlaps   10 atoms,    23 shells and     4 DB shells.   NGrid=       604
 Symmetry reduced   302 angular points to   302 for atom    2.
 IPart=  3 Atom   2 batch   22 overlaps   10 atoms,    12 shells and     0 DB shells.   NGrid=       604
 IPart=  1 Atom   2 batch   23 overlaps   10 atoms,     4 shells and     0 DB shells.   NGrid=       302
 Pruned (  99, 590) grid will be used in numerical quadrature.
 IPart=  0 Atom number   3 atomic number  7 has       23416 grid points.
 IPart=  0 Atom   3 batch    1 overlaps   10 atoms,   104 shells and    10 DB shells.   NGrid=      2408
 Symmetry reduced    86 angular points to    86 for atom    3.
 Pruned (  99, 590) grid will be used in numerical quadrature.
 IPart=  5 Atom number   3 atomic number  7 has       23416 grid points.
 IPart=  5 Atom   3 batch    2 overlaps   10 atoms,   106 shells and    10 DB shells.   NGrid=      2522
 Pruned (  99, 590) grid will be used in numerical quadrature.
 Symmetry reduced   194 angular points to   194 for atom    3.
 IPart=  2 Atom number   3 atomic number  7 has       23416 grid points.
 IPart=  2 Atom   3 batch    3 overlaps   10 atoms,   108 shells and    10 DB shells.   NGrid=      2114
 Symmetry reduced   302 angular points to   302 for atom    3.
 Pruned (  99, 590) grid will be used in numerical quadrature.
 IPart=  6 Atom number   3 atomic number  7 has       23416 grid points.
 IPart=  6 Atom   3 batch    4 overlaps   10 atoms,   108 shells and    10 DB shells.   NGrid=      1180
 Pruned (  99, 590) grid will be used in numerical quadrature.
 Symmetry reduced   590 angular points to   590 for atom    3.
 IPart=  1 Atom number   3 atomic number  7 has       23416 grid points.
 IPart=  1 Atom   3 batch    5 overlaps   10 atoms,   108 shells and    10 DB shells.   NGrid=      1180
 Symmetry reduced   590 angular points to   590 for atom    3.
 Pruned (  99, 590) grid will be used in numerical quadrature.
 IPart=  4 Atom number   3 atomic number  7 has       23416 grid points.
 IPart=  4 Atom   3 batch    6 overlaps   10 atoms,   110 shells and    10 DB shells.   NGrid=      1180
 Symmetry reduced   590 angular points to   590 for atom    3.
 Pruned (  99, 590) grid will be used in numerical quadrature.
 IPart=  3 Atom number   3 atomic number  7 has       23416 grid points.
 IPart=  3 Atom   3 batch    7 overlaps   10 atoms,   110 shells and    10 DB shells.   NGrid=      1180
 Symmetry reduced   590 angular points to   590 for atom    3.
 Pruned (  99, 590) grid will be used in numerical quadrature.
 IPart=  7 Atom number   3 atomic number  7 has       23416 grid points.
 IPart=  7 Atom   3 batch    8 overlaps   10 atoms,   110 shells and    10 DB shells.   NGrid=      1180
 Symmetry reduced   590 angular points to   590 for atom    3.
 IPart=  6 Atom   3 batch    9 overlaps   10 atoms,   110 shells and    10 DB shells.   NGrid=      1180
 IPart=  1 Atom   3 batch   10 overlaps   10 atoms,   110 shells and    10 DB shells.   NGrid=      1180
 IPart=  4 Atom   3 batch   11 overlaps   10 atoms,   110 shells and    10 DB shells.   NGrid=      1180
 IPart=  3 Atom   3 batch   12 overlaps   10 atoms,   109 shells and    10 DB shells.   NGrid=       590
 IPart=  7 Atom   3 batch   13 overlaps   10 atoms,   109 shells and    10 DB shells.   NGrid=       604
 Symmetry reduced   302 angular points to   302 for atom    3.
 IPart=  3 Atom   3 batch   14 overlaps   10 atoms,   109 shells and    10 DB shells.   NGrid=       604
 Symmetry reduced   302 angular points to   302 for atom    3.
 IPart=  7 Atom   3 batch   15 overlaps   10 atoms,   107 shells and    10 DB shells.   NGrid=       604
 IPart=  0 Atom   3 batch   16 overlaps   10 atoms,   104 shells and    10 DB shells.   NGrid=       604
 Symmetry reduced   302 angular points to   302 for atom    3.
 IPart=  2 Atom   3 batch   17 overlaps   10 atoms,    98 shells and    10 DB shells.   NGrid=       604
 IPart=  5 Atom   3 batch   18 overlaps   10 atoms,    84 shells and    10 DB shells.   NGrid=       604
 Symmetry reduced   302 angular points to   302 for atom    3.
 IPart=  0 Atom   3 batch   19 overlaps   10 atoms,    62 shells and    10 DB shells.   NGrid=       604
 IPart=  1 Atom   3 batch   20 overlaps   10 atoms,    41 shells and     9 DB shells.   NGrid=       604
 IPart=  7 Atom   3 batch   21 overlaps   10 atoms,    23 shells and     4 DB shells.   NGrid=       604
 Symmetry reduced   302 angular points to   302 for atom    3.
 IPart=  4 Atom   3 batch   22 overlaps   10 atoms,    12 shells and     0 DB shells.   NGrid=       604
 Symmetry reduced   302 angular points to   302 for atom    3.
 IPart=  6 Atom   3 batch   23 overlaps   10 atoms,     4 shells and     0 DB shells.   NGrid=       302
 Symmetry reduced   302 angular points to   302 for atom    3.
 Pruned (  99, 590) grid will be used in numerical quadrature.
 IPart=  3 Atom number   4 atomic number  7 has       23416 grid points.
 IPart=  3 Atom   4 batch    1 overlaps   10 atoms,   104 shells and    10 DB shells.   NGrid=      2408
 Symmetry reduced    86 angular points to    86 for atom    4.
 Pruned (  99, 590) grid will be used in numerical quadrature.
 IPart=  6 Atom number   4 atomic number  7 has       23416 grid points.
 IPart=  6 Atom   4 batch    2 overlaps   10 atoms,   106 shells and    10 DB shells.   NGrid=      2522
 Symmetry reduced   194 angular points to   194 for atom    4.
 Pruned (  99, 590) grid will be used in numerical quadrature.
 IPart=  7 Atom number   4 atomic number  7 has       23416 grid points.
 IPart=  7 Atom   4 batch    3 overlaps   10 atoms,   108 shells and    10 DB shells.   NGrid=      2114
 Pruned (  99, 590) grid will be used in numerical quadrature.
 Symmetry reduced   302 angular points to   302 for atom    4.
 IPart=  2 Atom number   4 atomic number  7 has       23416 grid points.
 IPart=  2 Atom   4 batch    4 overlaps   10 atoms,   108 shells and    10 DB shells.   NGrid=      1180
 Symmetry reduced   590 angular points to   590 for atom    4.
 Pruned (  99, 590) grid will be used in numerical quadrature.
 Pruned (  99, 590) grid will be used in numerical quadrature.
 IPart=  4 Atom number   4 atomic number  7 has       23416 grid points.
 IPart=  1 Atom number   4 atomic number  7 has       23416 grid points.
 IPart=  4 Atom   4 batch    5 overlaps   10 atoms,   108 shells and    10 DB shells.   NGrid=      1180
 IPart=  1 Atom   4 batch    6 overlaps   10 atoms,   110 shells and    10 DB shells.   NGrid=      1180
 Symmetry reduced   590 angular points to   590 for atom    4.
 Symmetry reduced   590 angular points to   590 for atom    4.
 Pruned (  99, 590) grid will be used in numerical quadrature.
 IPart=  0 Atom number   4 atomic number  7 has       23416 grid points.
 IPart=  0 Atom   4 batch    7 overlaps   10 atoms,   110 shells and    10 DB shells.   NGrid=      1180
 Symmetry reduced   590 angular points to   590 for atom    4.
 Pruned (  99, 590) grid will be used in numerical quadrature.
 IPart=  5 Atom number   4 atomic number  7 has       23416 grid points.
 IPart=  5 Atom   4 batch    8 overlaps   10 atoms,   110 shells and    10 DB shells.   NGrid=      1180
 Symmetry reduced   590 angular points to   590 for atom    4.
 IPart=  4 Atom   4 batch    9 overlaps   10 atoms,   110 shells and    10 DB shells.   NGrid=      1180
 IPart=  2 Atom   4 batch   10 overlaps   10 atoms,   110 shells and    10 DB shells.   NGrid=      1180
 IPart=  0 Atom   4 batch   11 overlaps   10 atoms,   110 shells and    10 DB shells.   NGrid=      1180
 IPart=  1 Atom   4 batch   12 overlaps   10 atoms,   109 shells and    10 DB shells.   NGrid=       590
 IPart=  5 Atom   4 batch   13 overlaps   10 atoms,   109 shells and    10 DB shells.   NGrid=       604
 Symmetry reduced   302 angular points to   302 for atom    4.
 IPart=  1 Atom   4 batch   14 overlaps   10 atoms,   109 shells and    10 DB shells.   NGrid=       604
 Symmetry reduced   302 angular points to   302 for atom    4.
 IPart=  5 Atom   4 batch   15 overlaps   10 atoms,   107 shells and    10 DB shells.   NGrid=       604
 IPart=  3 Atom   4 batch   16 overlaps   10 atoms,   104 shells and    10 DB shells.   NGrid=       604
 Symmetry reduced   302 angular points to   302 for atom    4.
 IPart=  7 Atom   4 batch   17 overlaps   10 atoms,    98 shells and    10 DB shells.   NGrid=       604
 IPart=  6 Atom   4 batch   18 overlaps   10 atoms,    84 shells and    10 DB shells.   NGrid=       604
 Symmetry reduced   302 angular points to   302 for atom    4.
 IPart=  3 Atom   4 batch   19 overlaps   10 atoms,    62 shells and    10 DB shells.   NGrid=       604
 IPart=  0 Atom   4 batch   20 overlaps   10 atoms,    41 shells and     9 DB shells.   NGrid=       604
 Symmetry reduced   302 angular points to   302 for atom    4.
 IPart=  2 Atom   4 batch   22 overlaps   10 atoms,    12 shells and     0 DB shells.   NGrid=       604
 IPart=  1 Atom   4 batch   23 overlaps   10 atoms,     4 shells and     0 DB shells.   NGrid=       302
 Symmetry reduced   302 angular points to   302 for atom    4.
 IPart=  5 Atom   4 batch   21 overlaps   10 atoms,    23 shells and     4 DB shells.   NGrid=       604
 Pruned (  99, 590) grid will be used in numerical quadrature.
 Pruned (  99, 590) grid will be used in numerical quadrature.
 IPart=  3 Atom number   5 atomic number  1 has       23466 grid points.
 IPart=  0 Atom number   5 atomic number  1 has       23466 grid points.
 IPart=  3 Atom   5 batch    1 overlaps   10 atoms,    95 shells and    10 DB shells.   NGrid=      2838
 IPart=  0 Atom   5 batch    2 overlaps   10 atoms,    98 shells and    10 DB shells.   NGrid=      1552
 Symmetry reduced    86 angular points to    86 for atom    5.
 Symmetry reduced   194 angular points to   194 for atom    5.
 Pruned (  99, 590) grid will be used in numerical quadrature.
 IPart=  1 Atom number   5 atomic number  1 has       23466 grid points.
 IPart=  1 Atom   5 batch    3 overlaps   10 atoms,   100 shells and    10 DB shells.   NGrid=      2416
 Symmetry reduced   302 angular points to   302 for atom    5.
 Pruned (  99, 590) grid will be used in numerical quadrature.
 Pruned (  99, 590) grid will be used in numerical quadrature.
 IPart=  2 Atom number   5 atomic number  1 has       23466 grid points.
 IPart=  5 Atom number   5 atomic number  1 has       23466 grid points.
 IPart=  2 Atom   5 batch    4 overlaps   10 atoms,   102 shells and    10 DB shells.   NGrid=      1180
 IPart=  5 Atom   5 batch    5 overlaps   10 atoms,   105 shells and    10 DB shells.   NGrid=      1180
 Symmetry reduced   590 angular points to   590 for atom    5.
 Symmetry reduced   590 angular points to   590 for atom    5.
 Pruned (  99, 590) grid will be used in numerical quadrature.
 IPart=  7 Atom number   5 atomic number  1 has       23466 grid points.
 IPart=  7 Atom   5 batch    6 overlaps   10 atoms,   106 shells and    10 DB shells.   NGrid=      1180
 Symmetry reduced   590 angular points to   590 for atom    5.
 Pruned (  99, 590) grid will be used in numerical quadrature.
 IPart=  4 Atom number   5 atomic number  1 has       23466 grid points.
 IPart=  4 Atom   5 batch    7 overlaps   10 atoms,   106 shells and    10 DB shells.   NGrid=      1180
 Symmetry reduced   590 angular points to   590 for atom    5.
 Pruned (  99, 590) grid will be used in numerical quadrature.
 IPart=  6 Atom number   5 atomic number  1 has       23466 grid points.
 IPart=  6 Atom   5 batch    8 overlaps   10 atoms,   108 shells and    10 DB shells.   NGrid=      1180
 Symmetry reduced   590 angular points to   590 for atom    5.
 IPart=  2 Atom   5 batch    9 overlaps   10 atoms,   109 shells and    10 DB shells.   NGrid=      1180
 IPart=  5 Atom   5 batch   10 overlaps   10 atoms,   109 shells and    10 DB shells.   NGrid=      1180
 IPart=  7 Atom   5 batch   11 overlaps   10 atoms,   110 shells and    10 DB shells.   NGrid=      1180
 IPart=  4 Atom   5 batch   12 overlaps   10 atoms,   110 shells and    10 DB shells.   NGrid=      1180
 IPart=  0 Atom   5 batch   13 overlaps   10 atoms,   110 shells and    10 DB shells.   NGrid=       604
 Symmetry reduced   302 angular points to   302 for atom    5.
 IPart=  6 Atom   5 batch   14 overlaps   10 atoms,   109 shells and    10 DB shells.   NGrid=       604
 Symmetry reduced   302 angular points to   302 for atom    5.
 IPart=  6 Atom   5 batch   15 overlaps   10 atoms,   106 shells and    10 DB shells.   NGrid=       604
 IPart=  0 Atom   5 batch   16 overlaps   10 atoms,   101 shells and    10 DB shells.   NGrid=       604
 IPart=  1 Atom   5 batch   17 overlaps   10 atoms,    94 shells and    10 DB shells.   NGrid=       604
 IPart=  3 Atom   5 batch   18 overlaps   10 atoms,    75 shells and    10 DB shells.   NGrid=       604
 Symmetry reduced   302 angular points to   302 for atom    5.
 IPart=  0 Atom   5 batch   19 overlaps   10 atoms,    50 shells and     9 DB shells.   NGrid=       604
 IPart=  3 Atom   5 batch   20 overlaps   10 atoms,    29 shells and     5 DB shells.   NGrid=       604
 IPart=  6 Atom   5 batch   21 overlaps   10 atoms,    13 shells and     0 DB shells.   NGrid=       604
 IPart=  0 Atom   5 batch   22 overlaps   10 atoms,     5 shells and     0 DB shells.   NGrid=       604
 Pruned (  99, 590) grid will be used in numerical quadrature.
 IPart=  1 Atom number   6 atomic number  1 has       23466 grid points.
 IPart=  1 Atom   6 batch    1 overlaps   10 atoms,    95 shells and    10 DB shells.   NGrid=      2838
 Symmetry reduced    86 angular points to    86 for atom    6.
 Pruned (  99, 590) grid will be used in numerical quadrature.
 IPart=  3 Atom number   6 atomic number  1 has       23466 grid points.
 IPart=  3 Atom   6 batch    2 overlaps   10 atoms,    98 shells and    10 DB shells.   NGrid=      1552
 Symmetry reduced   194 angular points to   194 for atom    6.
 Pruned (  99, 590) grid will be used in numerical quadrature.
 Pruned (  99, 590) grid will be used in numerical quadrature.
 IPart=  2 Atom number   6 atomic number  1 has       23466 grid points.
 IPart=  6 Atom number   6 atomic number  1 has       23466 grid points.
 IPart=  2 Atom   6 batch    3 overlaps   10 atoms,   100 shells and    10 DB shells.   NGrid=      2416
 IPart=  6 Atom   6 batch    4 overlaps   10 atoms,   102 shells and    10 DB shells.   NGrid=      1180
 Symmetry reduced   302 angular points to   302 for atom    6.
 Symmetry reduced   590 angular points to   590 for atom    6.
 Pruned (  99, 590) grid will be used in numerical quadrature.
 IPart=  4 Atom number   6 atomic number  1 has       23466 grid points.
 IPart=  4 Atom   6 batch    5 overlaps   10 atoms,   105 shells and    10 DB shells.   NGrid=      1180
 Symmetry reduced   590 angular points to   590 for atom    6.
 Pruned (  99, 590) grid will be used in numerical quadrature.
 IPart=  0 Atom number   6 atomic number  1 has       23466 grid points.
 IPart=  0 Atom   6 batch    6 overlaps   10 atoms,   106 shells and    10 DB shells.   NGrid=      1180
 Symmetry reduced   590 angular points to   590 for atom    6.
 Pruned (  99, 590) grid will be used in numerical quadrature.
 IPart=  7 Atom number   6 atomic number  1 has       23466 grid points.
 IPart=  7 Atom   6 batch    7 overlaps   10 atoms,   106 shells and    10 DB shells.   NGrid=      1180
 Symmetry reduced   590 angular points to   590 for atom    6.
 Pruned (  99, 590) grid will be used in numerical quadrature.
 IPart=  5 Atom number   6 atomic number  1 has       23466 grid points.
 IPart=  5 Atom   6 batch    8 overlaps   10 atoms,   108 shells and    10 DB shells.   NGrid=      1180
 Symmetry reduced   590 angular points to   590 for atom    6.
 IPart=  6 Atom   6 batch    9 overlaps   10 atoms,   109 shells and    10 DB shells.   NGrid=      1180
 IPart=  4 Atom   6 batch   10 overlaps   10 atoms,   109 shells and    10 DB shells.   NGrid=      1180
 IPart=  0 Atom   6 batch   11 overlaps   10 atoms,   110 shells and    10 DB shells.   NGrid=      1180
 IPart=  7 Atom   6 batch   12 overlaps   10 atoms,   110 shells and    10 DB shells.   NGrid=      1180
 IPart=  3 Atom   6 batch   13 overlaps   10 atoms,   110 shells and    10 DB shells.   NGrid=       604
 Symmetry reduced   302 angular points to   302 for atom    6.
 IPart=  5 Atom   6 batch   14 overlaps   10 atoms,   109 shells and    10 DB shells.   NGrid=       604
 Symmetry reduced   302 angular points to   302 for atom    6.
 IPart=  5 Atom   6 batch   15 overlaps   10 atoms,   106 shells and    10 DB shells.   NGrid=       604
 IPart=  3 Atom   6 batch   16 overlaps   10 atoms,   101 shells and    10 DB shells.   NGrid=       604
 IPart=  2 Atom   6 batch   17 overlaps   10 atoms,    94 shells and    10 DB shells.   NGrid=       604
 IPart=  1 Atom   6 batch   18 overlaps   10 atoms,    75 shells and    10 DB shells.   NGrid=       604
 Symmetry reduced   302 angular points to   302 for atom    6.
 IPart=  6 Atom   6 batch   19 overlaps   10 atoms,    50 shells and     9 DB shells.   NGrid=       604
 Symmetry reduced   302 angular points to   302 for atom    6.
 IPart=  5 Atom   6 batch   20 overlaps   10 atoms,    29 shells and     5 DB shells.   NGrid=       604
 IPart=  3 Atom   6 batch   21 overlaps   10 atoms,    13 shells and     0 DB shells.   NGrid=       604
 IPart=  1 Atom   6 batch   22 overlaps   10 atoms,     5 shells and     0 DB shells.   NGrid=       604
 Pruned (  99, 590) grid will be used in numerical quadrature.
 IPart=  2 Atom number   7 atomic number  1 has       23466 grid points.
 IPart=  2 Atom   7 batch    1 overlaps   10 atoms,    95 shells and    10 DB shells.   NGrid=      2838
 Symmetry reduced    86 angular points to    86 for atom    7.
 Pruned (  99, 590) grid will be used in numerical quadrature.
 IPart=  4 Atom number   7 atomic number  1 has       23466 grid points.
 IPart=  4 Atom   7 batch    2 overlaps   10 atoms,    98 shells and    10 DB shells.   NGrid=      1552
 Symmetry reduced   194 angular points to   194 for atom    7.
 Pruned (  99, 590) grid will be used in numerical quadrature.
 Pruned (  99, 590) grid will be used in numerical quadrature.
 IPart=  6 Atom number   7 atomic number  1 has       23466 grid points.
 IPart=  5 Atom number   7 atomic number  1 has       23466 grid points.
 IPart=  6 Atom   7 batch    3 overlaps   10 atoms,   100 shells and    10 DB shells.   NGrid=      2416
 IPart=  5 Atom   7 batch    4 overlaps   10 atoms,   102 shells and    10 DB shells.   NGrid=      1180
 Symmetry reduced   302 angular points to   302 for atom    7.
 Pruned (  99, 590) grid will be used in numerical quadrature.
 Symmetry reduced   590 angular points to   590 for atom    7.
 IPart=  3 Atom number   7 atomic number  1 has       23466 grid points.
 IPart=  3 Atom   7 batch    5 overlaps   10 atoms,   105 shells and    10 DB shells.   NGrid=      1180
 Symmetry reduced   590 angular points to   590 for atom    7.
 Pruned (  99, 590) grid will be used in numerical quadrature.
 IPart=  1 Atom number   7 atomic number  1 has       23466 grid points.
 IPart=  1 Atom   7 batch    6 overlaps   10 atoms,   106 shells and    10 DB shells.   NGrid=      1180
 Symmetry reduced   590 angular points to   590 for atom    7.
 Pruned (  99, 590) grid will be used in numerical quadrature.
[...]
     23  0.000000D+00  0.000000D+00  0.000000D+00  0.000000D+00  0.000000D+00
     24  0.000000D+00  0.000000D+00  0.000000D+00  0.000000D+00  0.000000D+00
     25  0.000000D+00  0.000000D+00  0.000000D+00  0.000000D+00  0.000000D+00
     26  0.000000D+00  0.000000D+00  0.000000D+00  0.000000D+00  0.000000D+00
     27  0.000000D+00  0.000000D+00  0.000000D+00  0.000000D+00  0.000000D+00
     28  0.000000D+00  0.000000D+00  0.000000D+00  0.000000D+00  0.000000D+00
     29  0.000000D+00  0.000000D+00  0.000000D+00  0.000000D+00  0.000000D+00
     30  0.000000D+00  0.000000D+00  0.000000D+00  0.000000D+00  0.000000D+00
     31  0.000000D+00  0.000000D+00  0.000000D+00  0.000000D+00  0.000000D+00
     32  0.000000D+00  0.000000D+00  0.000000D+00  0.000000D+00  0.000000D+00
     33  0.000000D+00  0.000000D+00  0.000000D+00  0.000000D+00  0.000000D+00
               21            22            23            24            25 
     21  0.892535D-01
     22  0.000000D+00  0.102155D-01
     23  0.000000D+00  0.507180D-02  0.692011D-02
     24  0.000000D+00  0.807273D-03 -0.104104D-02  0.692011D-02
     25  0.000000D+00 -0.433647D-02  0.807273D-03  0.507180D-02  0.102155D-01
     26  0.000000D+00 -0.765691D-02 -0.467286D-02  0.175136D-02  0.473541D-02
     27  0.000000D+00 -0.467285D-02 -0.359625D-02  0.143998D-02  0.251659D-02
     28  0.000000D+00  0.175136D-02  0.143998D-02 -0.436148D-02 -0.467286D-02
     29  0.000000D+00  0.473542D-02  0.251659D-02 -0.467285D-02 -0.689168D-02
     30  0.000000D+00  0.251659D-02  0.143998D-02 -0.359625D-02 -0.467286D-02
     31  0.000000D+00  0.473542D-02  0.175136D-02 -0.467285D-02 -0.765691D-02
     32  0.000000D+00 -0.689168D-02 -0.467286D-02  0.251659D-02  0.473541D-02
     33  0.000000D+00 -0.467285D-02 -0.436148D-02  0.143998D-02  0.175136D-02
               26            27            28            29            30 
     26  0.102155D-01
     27  0.507180D-02  0.692011D-02
     28  0.807274D-03 -0.104104D-02  0.692011D-02
     29 -0.433647D-02  0.807273D-03  0.507180D-02  0.102155D-01
     30 -0.467286D-02 -0.436148D-02  0.143998D-02  0.175136D-02  0.692011D-02
     31 -0.689168D-02 -0.467285D-02  0.251659D-02  0.473542D-02  0.507180D-02
     32  0.473541D-02  0.175136D-02 -0.467286D-02 -0.765691D-02  0.807273D-03
     33  0.251659D-02  0.143998D-02 -0.359625D-02 -0.467285D-02 -0.104104D-02
               31            32            33 
     31  0.102155D-01
     32 -0.433647D-02  0.102155D-01
     33  0.807273D-03  0.507180D-02  0.692011D-02
 Leave Link  716 at Sun Sep 28 20:58:25 2025, MaxMem=  1572864000 cpu:               0.3 elap:               0.1
 (Enter /software/sse/easybuild/prefix/software/Gaussian/16.C.01-avx2-nsc1/g16/l103.exe)

 GradGradGradGradGradGradGradGradGradGradGradGradGradGradGradGradGradGrad
 Berny optimization.
 Red2BG is reusing G-inverse.
 Internal  Forces:  Max     0.000000091 RMS     0.000000044
 Search for a local minimum.
 Step number   1 out of a maximum of    2
 All quantities printed in internal units (Hartrees-Bohrs-Radians)
 Second derivative matrix not updated -- analytic derivatives used.
 ITU=  0
     Eigenvalues ---    0.00160   0.00494   0.00494   0.00826   0.01698
     Eigenvalues ---    0.01698   0.04911   0.12817   0.12817   0.13649
     Eigenvalues ---    0.14003   0.15538   0.15538   0.29498   0.29498
     Eigenvalues ---    0.52855   0.52855   0.53090   0.53349   0.53421
     Eigenvalues ---    0.53421   0.57621   0.57621   0.72991
 Angle between quadratic step and forces=  90.00 degrees.
 Linear search not attempted -- first point.
 Iteration  1 RMS(Cart)=  0.00000012 RMS(Int)=  0.00000000
 ITry= 1 IFail=0 DXMaxC= 2.86D-07 DCOld= 1.00D+10 DXMaxT= 3.00D-01 DXLimC= 3.00D+00 Rises=F
 ClnCor:  largest displacement from symmetrization is 5.35D-13 for atom     9.
 Variable       Old X    -DE/DX   Delta X   Delta X   Delta X     New X
                                 (Linear)    (Quad)   (Total)
    R1        2.49180  -0.00000   0.00000  -0.00000  -0.00000   2.49180
    R2        2.49180  -0.00000   0.00000  -0.00000  -0.00000   2.49180
    R3        2.49180  -0.00000   0.00000  -0.00000  -0.00000   2.49180
    R4        1.87465  -0.00000   0.00000  -0.00000  -0.00000   1.87465
    R5        1.87465  -0.00000   0.00000  -0.00000  -0.00000   1.87465
    R6        1.87465  -0.00000   0.00000  -0.00000  -0.00000   1.87465
    R7        1.87465  -0.00000   0.00000  -0.00000  -0.00000   1.87465
    R8        1.87465  -0.00000   0.00000  -0.00000  -0.00000   1.87465
    R9        1.87465  -0.00000   0.00000  -0.00000  -0.00000   1.87465
    A1        2.09440  -0.00000   0.00000  -0.00000   0.00000   2.09440
    A2        2.09440   0.00000   0.00000   0.00000   0.00000   2.09440
    A3        2.09440  -0.00000   0.00000  -0.00000   0.00000   2.09440
    A4        2.11716   0.00000   0.00000   0.00000   0.00000   2.11716
    A5        2.11716   0.00000   0.00000   0.00000   0.00000   2.11716
    A6        2.04886  -0.00000   0.00000  -0.00000  -0.00000   2.04886
    A7        2.11716   0.00000   0.00000   0.00000   0.00000   2.11716
    A8        2.11716   0.00000   0.00000   0.00000   0.00000   2.11716
    A9        2.04886  -0.00000   0.00000  -0.00000  -0.00000   2.04886
   A10        2.11716   0.00000   0.00000   0.00000   0.00000   2.11716
   A11        2.11716   0.00000   0.00000   0.00000   0.00000   2.11716
   A12        2.04886  -0.00000   0.00000  -0.00000  -0.00000   2.04886
    D1        3.14159  -0.00000   0.00000  -0.00000   0.00000   3.14159
    D2        0.00000  -0.00000   0.00000   0.00000  -0.00000   0.00000
    D3        0.00000  -0.00000   0.00000  -0.00000   0.00000   0.00000
    D4        3.14159  -0.00000   0.00000   0.00000   0.00000   3.14159
    D5        3.14159   0.00000   0.00000  -0.00000   0.00000   3.14159
    D6       -0.00000   0.00000   0.00000   0.00000   0.00000   0.00000
    D7        0.00000   0.00000   0.00000  -0.00000  -0.00000   0.00000
    D8        3.14159   0.00000   0.00000   0.00000   0.00000   3.14159
    D9        0.00000  -0.00000   0.00000  -0.00000  -0.00000   0.00000
   D10        3.14159   0.00000   0.00000   0.00000   0.00000   3.14159
   D11        3.14159  -0.00000   0.00000  -0.00000   0.00000   3.14159
   D12       -0.00000   0.00000   0.00000   0.00000   0.00000   0.00000
         Item               Value     Threshold  Converged?
 Maximum Force            0.000000     0.000002     YES
 RMS     Force            0.000000     0.000001     YES
 Maximum Displacement     0.000000     0.000006     YES
 RMS     Displacement     0.000000     0.000004     YES
 Predicted change in Energy=-7.624845D-14
 Optimization completed.
    -- Stationary point found.
                           ----------------------------
                           !   Optimized Parameters   !
                           ! (Angstroms and Degrees)  !
 --------------------------                            --------------------------
 ! Name  Definition              Value          Derivative Info.                !
 --------------------------------------------------------------------------------
 ! R1    R(1,2)                  1.3186         -DE/DX =    0.0                 !
 ! R2    R(1,3)                  1.3186         -DE/DX =    0.0                 !
 ! R3    R(1,4)                  1.3186         -DE/DX =    0.0                 !
 ! R4    R(2,7)                  0.992          -DE/DX =    0.0                 !
 ! R5    R(2,8)                  0.992          -DE/DX =    0.0                 !
 ! R6    R(3,5)                  0.992          -DE/DX =    0.0                 !
 ! R7    R(3,6)                  0.992          -DE/DX =    0.0                 !
 ! R8    R(4,9)                  0.992          -DE/DX =    0.0                 !
 ! R9    R(4,10)                 0.992          -DE/DX =    0.0                 !
 ! A1    A(2,1,3)              120.0            -DE/DX =    0.0                 !
 ! A2    A(2,1,4)              120.0            -DE/DX =    0.0                 !
 ! A3    A(3,1,4)              120.0            -DE/DX =    0.0                 !
 ! A4    A(1,2,7)              121.3045         -DE/DX =    0.0                 !
 ! A5    A(1,2,8)              121.3045         -DE/DX =    0.0                 !
 ! A6    A(7,2,8)              117.391          -DE/DX =    0.0                 !
 ! A7    A(1,3,5)              121.3045         -DE/DX =    0.0                 !
 ! A8    A(1,3,6)              121.3045         -DE/DX =    0.0                 !
 ! A9    A(5,3,6)              117.391          -DE/DX =    0.0                 !
 ! A10   A(1,4,9)              121.3045         -DE/DX =    0.0                 !
 ! A11   A(1,4,10)             121.3045         -DE/DX =    0.0                 !
 ! A12   A(9,4,10)             117.391          -DE/DX =    0.0                 !
 ! D1    D(3,1,2,7)            180.0            -DE/DX =    0.0                 !
 ! D2    D(3,1,2,8)              0.0            -DE/DX =    0.0                 !
 ! D3    D(4,1,2,7)              0.0            -DE/DX =    0.0                 !
 ! D4    D(4,1,2,8)            180.0            -DE/DX =    0.0                 !
 ! D5    D(2,1,3,5)            180.0            -DE/DX =    0.0                 !
 ! D6    D(2,1,3,6)              0.0            -DE/DX =    0.0                 !
 ! D7    D(4,1,3,5)              0.0            -DE/DX =    0.0                 !
 ! D8    D(4,1,3,6)            180.0            -DE/DX =    0.0                 !
 ! D9    D(2,1,4,9)              0.0            -DE/DX =    0.0                 !
 ! D10   D(2,1,4,10)           180.0            -DE/DX =    0.0                 !
 ! D11   D(3,1,4,9)            180.0            -DE/DX =    0.0                 !
 ! D12   D(3,1,4,10)             0.0            -DE/DX =    0.0                 !
 --------------------------------------------------------------------------------
 GradGradGradGradGradGradGradGradGradGradGradGradGradGradGradGradGradGrad

 Leave Link  103 at Sun Sep 28 20:58:25 2025, MaxMem=  1572864000 cpu:               0.1 elap:               0.0
 (Enter /software/sse/easybuild/prefix/software/Gaussian/16.C.01-avx2-nsc1/g16/l9999.exe)
 Dipole is zero, so no output in dipole orientation.

 ----------------------------------------------------------------------

 Electric dipole moment (input orientation):
 (Debye = 10**-18 statcoulomb cm , SI units = C m)
                  (au)            (Debye)         (10**-30 SI)
   Tot        0.000000D+00      0.000000D+00      0.000000D+00
   x          0.000000D+00      0.000000D+00      0.000000D+00
   y          0.000000D+00      0.000000D+00      0.000000D+00
   z          0.000000D+00      0.000000D+00      0.000000D+00

 Dipole polarizability, Alpha (input orientation).
 (esu units = cm**3 , SI units = C**2 m**2 J**-1)
 Alpha(0;0):
               (au)            (10**-24 esu)      (10**-40 SI)
   iso        0.316586D+02      0.469132D+01      0.521980D+01
   aniso      0.138165D+02      0.204740D+01      0.227804D+01
   xx         0.362641D+02      0.537379D+01      0.597915D+01
   yx         0.000000D+00      0.000000D+00      0.000000D+00
   yy         0.362641D+02      0.537379D+01      0.597915D+01
   zx         0.000000D+00      0.000000D+00      0.000000D+00
   zy         0.000000D+00      0.000000D+00      0.000000D+00
   zz         0.224476D+02      0.332639D+01      0.370111D+01

 First dipole hyperpolarizability, Beta (input orientation).
 ||, _|_  parallel and perpendicular components, (z) with respect to z axis,
 vector components x,y,z.  Values do not include the 1/n! factor of 1/2.
 (esu units = statvolt**-1 cm**4 , SI units = C**3 m**3 J**-2)
 Beta(0;0,0):
               (au)            (10**-30 esu)      (10**-50 SI)
   || (z)     0.000000D+00      0.000000D+00      0.000000D+00
   _|_(z)     0.000000D+00      0.000000D+00      0.000000D+00
   x          0.000000D+00      0.000000D+00      0.000000D+00
   y          0.000000D+00      0.000000D+00      0.000000D+00
   z          0.000000D+00      0.000000D+00      0.000000D+00
   ||         0.000000D+00      0.000000D+00      0.000000D+00
   xxx       -0.166342D+02     -0.143707D+00     -0.533353D-01
   xxy        0.559552D+02      0.483410D+00      0.179413D+00
   yxy        0.166342D+02      0.143707D+00      0.533353D-01
   yyy       -0.559552D+02     -0.483410D+00     -0.179413D+00
   xxz        0.000000D+00      0.000000D+00      0.000000D+00
   yxz        0.000000D+00      0.000000D+00      0.000000D+00
   yyz        0.000000D+00      0.000000D+00      0.000000D+00
   zxz        0.000000D+00      0.000000D+00      0.000000D+00
   zyz        0.000000D+00      0.000000D+00      0.000000D+00
   zzz        0.000000D+00      0.000000D+00      0.000000D+00

 ----------------------------------------------------------------------

 Test job not archived.
 1\1\NSC-N144\Freq\RHF\Aug-CC-pVTZ\C1H6N3(1+)\X_DAVVA\28-Sep-2025\0\\#P
  Geom=AllCheck Guess=TCheck SCRF=Check Test GenChk RHF/Aug-CC-pVTZ Fre
 q\\guanidinium\\1,1\C,-0.0072969697,0.0248242424,0.\N,-1.0805412169,-0
 .741241171,0.\N,1.1927572629,-0.5215998334,0.\N,-0.1341069551,1.337313
 7317,0.\H,2.0131024396,0.0362029078,0.\H,1.3106149508,-1.506597129,0.\
 H,-1.9925027415,-0.3508102749,0.\H,-1.007642461,-1.7305823045,0.\H,-1.
 0273508876,1.7688521239,0.\H,0.6599968816,1.9318801312,0.\\Version=ES6
 4L-G16RevC.01\HF=-204.617635\RMSD=1.826e-09\RMSF=4.325e-08\ZeroPoint=0
 .0938871\Thermal=0.0991141\ETot=-204.518521\HTot=-204.5175768\GTot=-20
 4.5490266\Dipole=0.,0.,0.\DipoleDeriv=2.0598885,0.,0.,0.,2.0598884,0.,
 0.,0.,0.5576525,-1.0294984,-0.4469857,0.,-0.4469857,-0.7223308,0.,0.,0
 .,-0.5435014,-1.1862237,0.3565004,0.,0.3565003,-0.5656055,0.,0.,0.,-0.
 5435014,-0.4120217,0.0904854,0.,0.0904853,-1.3398075,0.,0.,0.,-0.54350
 14,0.3504667,0.0270481,0.,0.0630691,0.1721517,0.,0.,0.,0.3454753,0.204
 3877,-0.0640826,0.,-0.1001037,0.3182307,0.,0.,0.,0.3454753,0.3608647,0
 .0097617,0.,-0.0262594,0.1617538,0.,0.,0.,0.3454753,0.1777086,0.036672
 8,0.,0.0726939,0.3449099,0.,0.,0.,0.3454753,0.2557524,-0.1177525,0.,-0
 .0817314,0.2668661,0.,0.,0.,0.3454753,0.2186752,0.1083526,0.,0.0723315
 ,0.3039432,0.,0.,0.,0.3454753\Polar=36.2641227,0.,36.2641227,0.,0.,22.
 447581\PolarDeriv=0.6748876,-2.2702319,-0.6748878,0.,0.,-0.0000002,-2.
 2702319,-0.6748873,2.2702314,0.,0.,0.0000001,0.,0.,0.,0.0000003,0.0000
 003,0.,1.1301205,0.5609207,-2.2927815,0.,0.,-1.3222855,-2.0659349,1.38
 73979,1.2360452,0.,0.,-0.9438269,0.,0.,0.,-2.1871338,-1.5611426,0.,-0.
 9204531,0.2438286,2.2204892,0.,0.,1.4785208,-1.6298725,-1.8945242,1.03
 79234,0.,0.,-0.6732194,0.,0.,0.,2.4455561,-1.1135421,0.,0.2764122,-2.4
 398533,-0.4137873,0.,0.,-0.1562353,2.0607034,0.0210467,-0.6388645,0.,0
 .,1.6170463,0.,0.,0.,-0.2584223,2.6746847,0.,5.9497292,0.8539084,1.491
 1974,0.,0.,0.8422828,2.4510461,1.4351795,0.8530908,0.,0.,0.4396727,0.,
 0.,0.,0.3283848,0.1787843,0.,1.5947455,-0.9247084,0.7983494,0.,0.,0.22
 13642,-2.0155636,1.9662628,-5.7663261,0.,0.,-0.9239861,0.,0.,0.,0.0807
 475,-0.3650757,0.,-6.5555528,0.1515172,-1.3803089,0.,0.,-0.9108775,1.7
 083875,-1.0195573,0.1100764,0.,0.,0.270286,0.,0.,0.,-0.3565386,0.11260
 85,0.,-0.9247808,-0.774041,0.065784,0.,0.,-0.0403737,-1.6211229,-1.289
 3688,-6.4749771,0.,0.,-0.9492746,0.,0.,0.,-0.0093606,-0.3737818,0.,-3.
 8338188,2.3994617,-2.7481111,0.,0.,-0.8019091,1.6494059,-1.3369403,3.1
 425572,0.,0.,0.509602,0.,0.,0.,-0.3190242,0.1949975,0.,2.6087102,2.199
 2004,2.9340566,0.,0.,0.6895133,1.7331853,1.4053915,4.2302405,0.,0.,0.6
 537001,0.,0.,0.,0.2757911,0.2524673,0.\HyperPolar=-16.63421,55.9552448
 ,16.63421,-55.9552448,0.,0.,0.,0.,0.,0.\Quadrupole=3.9773548,3.9773548
 ,-7.9547096,0.,0.,0.\PG=D03H [O(C1),3C2(N1),SGH(H6)]\NImag=0\\0.976121
 87,0.,0.97612188,0.,0.,0.23744761,-0.36354442,-0.12335022,0.,0.9772520
 4,-0.12335022,-0.27877844,0.,-0.02410346,0.99381589,0.,0.,-0.06857428,
 0.,0.,0.03994123,-0.40679435,0.09837987,0.,-0.08859192,0.00403784,0.,0
 .96880072,0.09837986,-0.23552849,0.,-0.02771984,0.03281891,0.,0.019224
 09,1.00226721,0.,0.,-0.06857428,0.,0.,0.01745374,0.,0.,0.03994123,-0.1
 9314551,0.02497036,0.,0.01272081,-0.06253077,0.,-0.00778841,0.07437177
 ,0.,1.01054914,0.02497036,-0.44917735,0.,-0.03077309,-0.06849382,0.,0.
 04261409,-0.04798460,0.,0.00487937,0.96051879,0.,0.,-0.06857428,0.,0.,
 0.01745374,0.,0.,0.01745374,0.,0.,0.03994123,-0.02754601,-0.02149957,0
 .,-0.00046936,0.00500047,0.,-0.37387306,-0.19958898,0.,0.00370772,-0.0
 0262992,0.,0.38544038,0.01530788,0.02333348,0.,0.00612862,-0.00258792,
 0.,-0.20392312,-0.23318111,0.,0.00077640,-0.00219579,0.,0.21158783,0.2
 2490521,0.,0.,-0.00528746,0.,0.,0.00461172,0.,0.,-0.00427843,0.,0.,-0.
 00347049,0.,0.,0.00730847,0.00446770,0.04317361,0.,0.00126688,-0.00134
 818,0.,-0.09399862,0.03968840,0.,-0.00718609,0.00028216,0.,0.01327217,
 -0.03242865,0.,0.08453843,0.00636617,-0.00868025,0.,-0.00475450,0.0002
 4506,0.,0.04402254,-0.51305556,0.,-0.00084599,0.00412881,0.,0.00599696
 ,-0.00973481,0.,-0.05032669,0.52580715,0.,0.,-0.00528746,0.,0.,-0.0034
 7049,0.,0.,-0.00427843,0.,0.,0.00461171,0.,0.,-0.00185773,0.,0.,0.0073
 0847,-0.02684461,0.01171200,0.,-0.44453923,0.15836217,0.,0.00154423,-0
 .00419447,0.,0.00314305,0.00367130,0.,-0.00043588,0.00059363,0.,-0.000
 09514,0.00019930,0.,0.45907416,-0.02509544,0.02263208,0.,0.16269631,-0
 .16251495,0.,-0.00532261,-0.00460151,0.,0.00026497,-0.00163111,0.,-0.0
 0090257,0.00114795,0.,-0.00029472,-0.00028137,0.,-0.16591162,0.1512714
 2,0.,0.,-0.00528746,0.,0.,-0.00427843,0.,0.,0.00461171,0.,0.,-0.003470
 49,0.,0.,0.00331922,0.,0.,-0.00123572,0.,0.,0.00730847,0.01329469,-0.0
 3888727,0.,-0.09362824,0.04212369,0.,0.00008268,0.00131651,0.,-0.00687
 732,-0.00242898,0.,-0.00011989,0.00032621,0.,-0.00260744,-0.00036896,0
 .,0.00746220,0.03578304,0.,0.08179856,-0.00207981,-0.01750722,0.,0.037
 78955,-0.51342594,0.,0.00472283,0.00142924,0.,-0.00130084,0.00382004,0
 .,-0.00016780,-0.00025661,0.,-0.00044734,0.00157749,0.,-0.00264257,-0.
 00392483,0.,-0.03628015,0.52854703,0.,0.,-0.00528746,0.,0.,-0.00427843
 ,0.,0.,-0.00347049,0.,0.,0.00461172,0.,0.,-0.00123572,0.,0.,0.00212615
 ,0.,0.,-0.00185773,0.,0.,0.00730847,0.00793252,0.00517566,0.,-0.001522
 51,-0.00379607,0.,0.00276076,-0.00426371,0.,-0.44307997,0.16396650,0.,
 -0.00015384,-0.00034581,0.,0.00061822,0.00001495,0.,0.00088472,-0.0015
 6886,0.,-0.00029103,0.00026661,0.,0.44827944,0.04198312,-0.01214506,0.
 ,-0.00038975,0.00303444,0.,-0.00313557,-0.00581803,0.,0.15963236,-0.16
 397421,0.,0.00014821,-0.00022267,0.,0.00151116,0.00009385,0.,-0.001647
 24,-0.00191467,0.,-0.00022741,-0.00008548,0.,-0.17530768,0.16206615,0.
 ,0.,-0.00528746,0.,0.,-0.00347049,0.,0.,0.00461172,0.,0.,-0.00427843,0
 .,0.,-0.00123572,0.,0.,0.00331922,0.,0.,0.00212615,0.,0.,-0.00123572,0
 .,0.,0.00730847,0.01605811,0.00032555,0.,0.00105594,0.00560453,0.,-0.0
 0214203,0.00278637,0.,-0.37204342,-0.20455178,0.,0.00017779,0.00197701
 ,0.,-0.00027613,-0.00030380,0.,-0.00019350,0.00035150,0.,0.00088576,0.
 00013952,0.,-0.01542832,-0.02256720,0.,0.37190578,-0.03648190,-0.02027
 064,0.,0.00447638,-0.00411322,0.,-0.00061996,0.00365396,0.,-0.20021764
 ,-0.23501076,0.,0.00205539,-0.00120774,0.,0.00019022,-0.00010038,0.,-0
 .00014252,-0.00018301,0.,-0.00135669,-0.00017370,0.,0.01585842,0.01896
 569,0.,0.21623830,0.23843980,0.,0.,-0.00528746,0.,0.,0.00461171,0.,0.,
 -0.00347049,0.,0.,-0.00427843,0.,0.,0.00212615,0.,0.,-0.00123572,0.,0.
 ,-0.00123572,0.,0.,0.00331922,0.,0.,-0.00185773,0.,0.,0.00730847\\0.,0
 .,0.,0.,0.,0.,0.,0.,0.,0.,0.,0.,0.00000006,0.00000008,0.,-0.00000002,-
 0.00000009,0.,-0.00000007,0.00000006,0.,0.00000004,-0.00000009,0.,-0.0
 0000010,0.00000001,0.,0.00000009,0.00000003,0.\\\@


 YOU ARE IN A MAZE OF TWISTY LITTLE PASSAGES.
 Job cpu time:       0 days  0 hours 25 minutes 33.1 seconds.
 Elapsed time:       0 days  0 hours  3 minutes 13.7 seconds.
 File lengths (MBytes):  RWF=     85 Int=      0 D2E=      0 Chk=     16 Scr=      1
 Normal termination of Gaussian 16 at Sun Sep 28 20:58:25 2025.
