 Entering Gaussian System, Link 0=/software/sse/easybuild/prefix/software/Gaussian/16.C.01-avx2-nsc1/g16/g16.orig
 Input=guanidinium.wrap
 Output=guanidinium.log
 Initial command:
 /software/sse/easybuild/prefix/software/Gaussian/16.C.01-avx2-nsc1/g16/l1.exe "/scratch/local/Gau-1120626.inp" -scrdir="/scratch/local/"
 Entering Link 1 = /software/sse/easybuild/prefix/software/Gaussian/16.C.01-avx2-nsc1/g16/l1.exe PID=   1120627.
  
 Copyright (c) 1988-2019, Gaussian, Inc.  All Rights Reserved.
  
 This is part of the Gaussian(R) 16 program.  It is based on
 the Gaussian(R) 09 system (copyright 2009, Gaussian, Inc.),
 the Gaussian(R) 03 system (copyright 2003, Gaussian, Inc.),
 the Gaussian(R) 98 system (copyright 1998, Gaussian, Inc.),
 the Gaussian(R) 94 system (copyright 1995, Gaussian, Inc.),
 the Gaussian 92(TM) system (copyright 1992, Gaussian, Inc.),
 the Gaussian 90(TM) system (copyright 1990, Gaussian, Inc.),
 the Gaussian 88(TM) system (copyright 1988, Gaussian, Inc.),
 the Gaussian 86(TM) system (copyright 1986, Carnegie Mellon
 University), and the Gaussian 82(TM) system (copyright 1983,
 Carnegie Mellon University). Gaussian is a federally registered
 trademark of Gaussian, Inc.
  
 This software contains proprietary and confidential information,
 including trade secrets, belonging to Gaussian, Inc.
  
 This software is provided under written license and may be
 used, copied, transmitted, or stored only in accord with that
 written license.
  
 The following legend is applicable only to US Government
 contracts under FAR:
  
                    RESTRICTED RIGHTS LEGEND
  
 Use, reproduction and disclosure by the US Government is
 subject to restrictions as set forth in subparagraphs (a)
 and (c) of the Commercial Computer Software - Restricted
 Rights clause in FAR 52.227-19.
  
 Gaussian, Inc.
 340 Quinnipiac St., Bldg. 40, Wallingford CT 06492
  
  
 ---------------------------------------------------------------
 Warning -- This program may not be used in any manner that
 competes with the business of Gaussian, Inc. or will provide
 assistance to any competitor of Gaussian, Inc.  The licensee
 of this program is prohibited from giving any competitor of
 Gaussian, Inc. access to this program.  By using this program,
 the user acknowledges that Gaussian, Inc. is engaged in the
 business of creating and licensing software in the field of
 computational chemistry and represents and warrants to the
 licensee that it is not a competitor of Gaussian, Inc. and that
 it will not use this program in any manner prohibited above.
 ---------------------------------------------------------------
  

 Cite this work as:
 Gaussian 16, Revision C.01,
 M. J. Frisch, G. W. Trucks, H. B. Schlegel, G. E. Scuseria, 
 M. A. Robb, J. R. Cheeseman, G. Scalmani, V. Barone, 
 G. A. Petersson, H. Nakatsuji, X. Li, M. Caricato, A. V. Marenich, 
 J. Bloino, B. G. Janesko, R. Gomperts, B. Mennucci, H. P. Hratchian, 
 J. V. Ortiz, A. F. Izmaylov, J. L. Sonnenberg, D. Williams-Young, 
 F. Ding, F. Lipparini, F. Egidi, J. Goings, B. Peng, A. Petrone, 
 T. Henderson, D. Ranasinghe, V. G. Zakrzewski, J. Gao, N. Rega, 
 G. Zheng, W. Liang, M. Hada, M. Ehara, K. Toyota, R. Fukuda, 
 J. Hasegawa, M. Ishida, T. Nakajima, Y. Honda, O. Kitao, H. Nakai, 
 T. Vreven, K. Throssell, J. A. Montgomery, Jr., J. E. Peralta, 
 F. Ogliaro, M. J. Bearpark, J. J. Heyd, E. N. Brothers, K. N. Kudin, 
 V. N. Staroverov, T. A. Keith, R. Kobayashi, J. Normand, 
 K. Raghavachari, A. P. Rendell, J. C. Burant, S. S. Iyengar, 
 J. Tomasi, M. Cossi, J. M. Millam, M. Klene, C. Adamo, R. Cammi, 
 J. W. Ochterski, R. L. Martin, K. Morokuma, O. Farkas, 
 J. B. Foresman, and D. J. Fox, Gaussian, Inc., Wallingford CT, 2019.
 
 ******************************************
 Gaussian 16:  ES64L-G16RevC.01  3-Jul-2019
                30-Sep-2025 
 ******************************************
 %mem=12000MB
 %nprocshared=16
 Will use up to   16 processors via shared memory.
 %mem=32Gb
 %chk=guanidinium.chk
 ----------------------------------------------------------------------
 #P HF/aug-cc-pvtz Opt=tight Pop=(MK,Hirshfeld) iop(6/33=2) iop(6/42=6)
  maxdisk=128GB
 ----------------------------------------------------------------------
 1/7=10,18=20,19=15,38=1/1,3;
 2/9=110,12=2,17=6,18=5,40=1/2;
 3/5=16,6=1,7=10,11=9,25=1,30=1,71=1/1,2,3;
 4//1;
 5/5=2,38=5/2;
 6/7=2,8=2,9=2,10=2,15=8,20=1,28=1,33=2,42=6,79=1/1,2;
 7//1,2,3,16;
 1/7=10,18=20,19=15/3(2);
 2/9=110/2;
 99//99;
 2/9=110/2;
 3/5=16,6=1,7=10,11=9,25=1,30=1,71=1/1,2,3;
 4/5=5,16=3,69=1/1;
 5/5=2,38=5/2;
 7//1,2,3,16;
 1/7=10,18=20,19=15/3(-5);
 2/9=110/2;
 6/7=2,8=2,9=2,10=2,15=8,19=2,20=1,28=1,33=2,42=6,79=1/1,2;
 99/9=1/99;
 Leave Link    1 at Tue Sep 30 16:58:49 2025, MaxMem=  4294967296 cpu:               0.9 elap:               0.1
 (Enter /software/sse/easybuild/prefix/software/Gaussian/16.C.01-avx2-nsc1/g16/l101.exe)
 -----------
 guanidinium
 -----------
 Symbolic Z-matrix:
 Charge =  1 Multiplicity = 1
 C                     0.        0.        0. 
 N                     0.        1.3186    0. 
 N                    -1.14194  -0.6593    0. 
 N                     1.14194  -0.6593    0. 
 H                    -1.16453  -1.65107   0. 
 H                    -2.01213  -0.18298   0. 
 H                     0.8476    1.83404   0. 
 H                    -0.8476    1.83404   0. 
 H                     2.01213  -0.18298   0. 
 H                     1.16453  -1.65107   0. 
 
 ITRead=  0  0  0  0  0  0  0  0  0  0
 MicOpt= -1 -1 -1 -1 -1 -1 -1 -1 -1 -1
 NAtoms=     10 NQM=       10 NQMF=       0 NMMI=      0 NMMIF=      0
                NMic=       0 NMicF=      0.
                    Isotopes and Nuclear Properties:
 (Nuclear quadrupole moments (NQMom) in fm**2, nuclear magnetic moments (NMagM)
  in nuclear magnetons)

  Atom         1           2           3           4           5           6           7           8           9          10
 IAtWgt=          12          14          14          14           1           1           1           1           1           1
 AtmWgt=  12.0000000  14.0030740  14.0030740  14.0030740   1.0078250   1.0078250   1.0078250   1.0078250   1.0078250   1.0078250
 NucSpn=           0           2           2           2           1           1           1           1           1           1
 AtZEff=  -0.0000000  -0.0000000  -0.0000000  -0.0000000  -0.0000000  -0.0000000  -0.0000000  -0.0000000  -0.0000000  -0.0000000
 NQMom=    0.0000000   2.0440000   2.0440000   2.0440000   0.0000000   0.0000000   0.0000000   0.0000000   0.0000000   0.0000000
 NMagM=    0.0000000   0.4037610   0.4037610   0.4037610   2.7928460   2.7928460   2.7928460   2.7928460   2.7928460   2.7928460
 AtZNuc=   6.0000000   7.0000000   7.0000000   7.0000000   1.0000000   1.0000000   1.0000000   1.0000000   1.0000000   1.0000000
 Leave Link  101 at Tue Sep 30 16:58:50 2025, MaxMem=  4294967296 cpu:               5.2 elap:               0.3
 (Enter /software/sse/easybuild/prefix/software/Gaussian/16.C.01-avx2-nsc1/g16/l103.exe)

 GradGradGradGradGradGradGradGradGradGradGradGradGradGradGradGradGradGrad
 Berny optimization.
 Initialization pass.
                           ----------------------------
                           !    Initial Parameters    !
                           ! (Angstroms and Degrees)  !
 --------------------------                            --------------------------
 ! Name  Definition              Value          Derivative Info.                !
 --------------------------------------------------------------------------------
 ! R1    R(1,2)                  1.3186         estimate D2E/DX2                !
 ! R2    R(1,3)                  1.3186         estimate D2E/DX2                !
 ! R3    R(1,4)                  1.3186         estimate D2E/DX2                !
 ! R4    R(2,7)                  0.992          estimate D2E/DX2                !
 ! R5    R(2,8)                  0.992          estimate D2E/DX2                !
 ! R6    R(3,5)                  0.992          estimate D2E/DX2                !
 ! R7    R(3,6)                  0.992          estimate D2E/DX2                !
 ! R8    R(4,9)                  0.992          estimate D2E/DX2                !
 ! R9    R(4,10)                 0.992          estimate D2E/DX2                !
 ! A1    A(2,1,3)              120.0            estimate D2E/DX2                !
 ! A2    A(2,1,4)              120.0            estimate D2E/DX2                !
 ! A3    A(3,1,4)              120.0            estimate D2E/DX2                !
 ! A4    A(1,2,7)              121.3045         estimate D2E/DX2                !
 ! A5    A(1,2,8)              121.3045         estimate D2E/DX2                !
 ! A6    A(7,2,8)              117.391          estimate D2E/DX2                !
 ! A7    A(1,3,5)              121.3049         estimate D2E/DX2                !
 ! A8    A(1,3,6)              121.3048         estimate D2E/DX2                !
 ! A9    A(5,3,6)              117.3904         estimate D2E/DX2                !
 ! A10   A(1,4,9)              121.3048         estimate D2E/DX2                !
 ! A11   A(1,4,10)             121.3049         estimate D2E/DX2                !
 ! A12   A(9,4,10)             117.3904         estimate D2E/DX2                !
 ! D1    D(3,1,2,7)            180.0            estimate D2E/DX2                !
 ! D2    D(3,1,2,8)              0.0            estimate D2E/DX2                !
 ! D3    D(4,1,2,7)              0.0            estimate D2E/DX2                !
 ! D4    D(4,1,2,8)            180.0            estimate D2E/DX2                !
 ! D5    D(2,1,3,5)            180.0            estimate D2E/DX2                !
 ! D6    D(2,1,3,6)              0.0            estimate D2E/DX2                !
 ! D7    D(4,1,3,5)              0.0            estimate D2E/DX2                !
 ! D8    D(4,1,3,6)            180.0            estimate D2E/DX2                !
 ! D9    D(2,1,4,9)              0.0            estimate D2E/DX2                !
 ! D10   D(2,1,4,10)           180.0            estimate D2E/DX2                !
 ! D11   D(3,1,4,9)            180.0            estimate D2E/DX2                !
 ! D12   D(3,1,4,10)             0.0            estimate D2E/DX2                !
 --------------------------------------------------------------------------------
 Trust Radius=3.00D-01 FncErr=1.00D-07 GrdErr=1.00D-07 EigMax=2.50D+02 EigMin=1.00D-04
 Number of steps in this run=     43 maximum allowed number of steps=    100.
 GradGradGradGradGradGradGradGradGradGradGradGradGradGradGradGradGradGrad

 Leave Link  103 at Tue Sep 30 16:58:50 2025, MaxMem=  4294967296 cpu:               0.2 elap:               0.0
 (Enter /software/sse/easybuild/prefix/software/Gaussian/16.C.01-avx2-nsc1/g16/l202.exe)
                          Input orientation:                          
 ---------------------------------------------------------------------
 Center     Atomic      Atomic             Coordinates (Angstroms)
 Number     Number       Type             X           Y           Z
 ---------------------------------------------------------------------
      1          6           0        0.000000    0.000000    0.000000
      2          7           0        0.000000    1.318600    0.000000
      3          7           0       -1.141940   -0.659300    0.000000
      4          7           0        1.141940   -0.659300    0.000000
      5          1           0       -1.164530   -1.651070    0.000000
      6          1           0       -2.012130   -0.182980    0.000000
      7          1           0        0.847600    1.834040    0.000000
      8          1           0       -0.847600    1.834040    0.000000
      9          1           0        2.012130   -0.182980    0.000000
     10          1           0        1.164530   -1.651070    0.000000
 ---------------------------------------------------------------------
                    Distance matrix (angstroms):
                    1          2          3          4          5
     1  C    0.000000
     2  N    1.318600   0.000000
     3  N    1.318599   2.283882   0.000000
     4  N    1.318599   2.283882   2.283880   0.000000
     5  H    2.020436   3.189839   0.992027   2.510660   0.000000
     6  H    2.020433   2.510659   0.992024   3.189834   1.695203
     7  H    2.020428   0.992020   3.189830   2.510653   4.024259
     8  H    2.020428   0.992020   2.510653   3.189830   3.499491
     9  H    2.020433   2.510659   3.189834   0.992024   3.499494
    10  H    2.020436   3.189839   2.510660   0.992027   2.329060
                    6          7          8          9         10
     6  H    0.000000
     7  H    3.499489   0.000000
     8  H    2.329056   1.695200   0.000000
     9  H    4.024260   2.329056   3.499489   0.000000
    10  H    3.499494   3.499491   4.024259   1.695203   0.000000
 This structure is nearly, but not quite of a higher symmetry.
 Consider Symm=Loose if the higher symmetry is desired.
 Stoichiometry    CH6N3(1+)
 Framework group  C2V[C2(CN),SGV(H6N2)]
 Deg. of freedom     9
 Full point group                 C2V     NOp   4
 Largest Abelian subgroup         C2V     NOp   4
 Largest concise Abelian subgroup C2      NOp   2
                         Standard orientation:                         
 ---------------------------------------------------------------------
 Center     Atomic      Atomic             Coordinates (Angstroms)
 Number     Number       Type             X           Y           Z
 ---------------------------------------------------------------------
      1          6           0       -0.000000    0.000000    0.000001
      2          7           0       -0.000000    0.000000    1.318601
      3          7           0       -0.000000    1.141940   -0.659299
      4          7           0       -0.000000   -1.141940   -0.659299
      5          1           0       -0.000000    1.164530   -1.651069
      6          1           0       -0.000000    2.012130   -0.182979
      7          1           0        0.000000   -0.847600    1.834041
      8          1           0        0.000000    0.847600    1.834041
      9          1           0       -0.000000   -2.012130   -0.182979
     10          1           0       -0.000000   -1.164530   -1.651069
 ---------------------------------------------------------------------
 Rotational constants (GHZ):          10.3427649          10.3427528           5.1713794
 Leave Link  202 at Tue Sep 30 16:58:50 2025, MaxMem=  4294967296 cpu:               0.1 elap:               0.0
 (Enter /software/sse/easybuild/prefix/software/Gaussian/16.C.01-avx2-nsc1/g16/l301.exe)
 Standard basis: Aug-CC-pVTZ (5D, 7F)
 Ernie: Thresh=  0.10000D-02 Tol=  0.10000D-05 Strict=F.
 Ernie:  12 primitive shells out of 186 were deleted.
 There are   139 symmetry adapted cartesian basis functions of A1  symmetry.
 There are    49 symmetry adapted cartesian basis functions of A2  symmetry.
 There are    65 symmetry adapted cartesian basis functions of B1  symmetry.
 There are   117 symmetry adapted cartesian basis functions of B2  symmetry.
 There are   116 symmetry adapted basis functions of A1  symmetry.
 There are    47 symmetry adapted basis functions of A2  symmetry.
 There are    59 symmetry adapted basis functions of B1  symmetry.
 There are   100 symmetry adapted basis functions of B2  symmetry.
   322 basis functions,   450 primitive gaussians,   370 cartesian basis functions
    16 alpha electrons       16 beta electrons
       nuclear repulsion energy       135.1989715866 Hartrees.
 IExCor=    0 DFT=F Ex=HF Corr=None ExCW=0 ScaHFX=  1.000000
 ScaDFX=  1.000000  1.000000  1.000000  1.000000 ScalE2=  1.000000  1.000000
 IRadAn=      5 IRanWt=     -1 IRanGd=            0 ICorTp=0 IEmpDi=  4
 NAtoms=   10 NActive=   10 NUniq=    6 SFac= 2.78D+00 NAtFMM=   60 NAOKFM=F Big=F
 Integral buffers will be    131072 words long.
 Raffenetti 1 integral format.
 Two-electron integral symmetry is turned on.
 Leave Link  301 at Tue Sep 30 16:58:51 2025, MaxMem=  4294967296 cpu:               0.8 elap:               0.1
 (Enter /software/sse/easybuild/prefix/software/Gaussian/16.C.01-avx2-nsc1/g16/l302.exe)
 NPDir=0 NMtPBC=     1 NCelOv=     1 NCel=       1 NClECP=     1 NCelD=      1
         NCelK=      1 NCelE2=     1 NClLst=     1 CellRange=     0.0.
 One-electron integrals computed using PRISM.
 One-electron integral symmetry used in STVInt
 NBasis=   322 RedAO= T EigKep=  2.81D-05  NBF=   116    47    59   100
 NBsUse=   322 1.00D-06 EigRej= -1.00D+00 NBFU=   116    47    59   100
 Leave Link  302 at Tue Sep 30 16:58:51 2025, MaxMem=  4294967296 cpu:               2.6 elap:               0.2
 (Enter /software/sse/easybuild/prefix/software/Gaussian/16.C.01-avx2-nsc1/g16/l303.exe)
 DipDrv:  MaxL=1.
 Leave Link  303 at Tue Sep 30 16:58:52 2025, MaxMem=  4294967296 cpu:               0.5 elap:               0.1
 (Enter /software/sse/easybuild/prefix/software/Gaussian/16.C.01-avx2-nsc1/g16/l401.exe)
 ExpMin= 2.53D-02 ExpMax= 1.14D+04 ExpMxC= 3.89D+02 IAcc=3 IRadAn=         5 AccDes= 0.00D+00
 Harris functional with IExCor=  205 and IRadAn=       5 diagonalized for initial guess.
 HarFok:  IExCor=  205 AccDes= 0.00D+00 IRadAn=         5 IDoV= 1 UseB2=F ITyADJ=14
 ICtDFT=  3500011 ScaDFX=  1.000000  1.000000  1.000000  1.000000
 FoFCou: FMM=F IPFlag=           0 FMFlag=      100000 FMFlg1=           0
         NFxFlg=           0 DoJE=T BraDBF=F KetDBF=T FulRan=T
         wScrn=  0.000000 ICntrl=       500 IOpCl=  0 I1Cent=   200000004 NGrid=           0
         NMat0=    1 NMatS0=      1 NMatT0=    0 NMatD0=    1 NMtDS0=    0 NMtDT0=    0
 Petite list used in FoFCou.
 Harris En= -204.912711759495    
 JPrj=0 DoOrth=F DoCkMO=F.
 Initial guess orbital symmetries:
       Occupied  (A1) (B2) (A1) (A1) (A1) (A1) (B2) (A1) (B2) (A1)
                 (B2) (A1) (B2) (B1) (B1) (A2)
       Virtual   (B1) (A1) (B2) (A1) (A1) (B2) (B1) (A1) (A1) (B2)
                 (B2) (A1) (A2) (B1) (A1) (A1) (B2) (A1) (B2) (B2)
                 (A1) (B2) (B1) (B1) (A2) (A1) (A1) (B2) (A1) (A1)
                 (B2) (A2) (A1) (A1) (B2) (B1) (B1) (A2) (B2) (A1)
                 (B2) (A1) (B2) (A1) (B1) (A2) (A1) (B2) (B1) (A1)
                 (A1) (B2) (B2) (B1) (A2) (B2) (B1) (A1) (B2) (A1)
                 (B2) (A1) (A2) (A1) (B1) (A2) (B2) (A1) (B2) (A1)
                 (B2) (A1) (B2) (A1) (B1) (B1) (A2) (A1) (A1) (B2)
                 (A2) (B1) (A1) (A1) (B2) (B1) (A2) (B2) (B1) (A1)
                 (B2) (A1) (B2) (B1) (A2) (A1) (B2) (A1) (B2) (A2)
                 (B1) (A1) (A1) (B2) (A1) (B2) (A2) (B1) (A1) (B2)
                 (A2) (B1) (B2) (A1) (A2) (B1) (A2) (A1) (B2) (A1)
                 (A2) (B1) (A1) (B2) (B2) (B1) (B1) (A2) (B2) (A1)
                 (B2) (A1) (A1) (B2) (A1) (B2) (A1) (B1) (B1) (A2)
                 (A1) (B2) (B2) (A1) (B2) (A1) (A2) (B1) (A1) (B2)
                 (A1) (B1) (B2) (A2) (B2) (B2) (A1) (A2) (B1) (A1)
                 (A1) (B2) (B1) (B1) (A2) (A1) (A1) (B2) (A1) (B2)
                 (A1) (B2) (B2) (B1) (A2) (B2) (A1) (A2) (B1) (A2)
                 (A1) (B2) (B2) (A1) (B1) (B2) (B2) (A1) (A1) (A1)
                 (B2) (B1) (A2) (B1) (B1) (A2) (B2) (A1) (B2) (A1)
                 (B2) (A1) (A1) (B1) (A2) (B1) (A1) (B2) (A1) (A1)
                 (B2) (A2) (A2) (B1) (B2) (B1) (A1) (B2) (B1) (A2)
                 (A1) (B1) (A2) (B2) (A1) (A2) (A1) (B1) (B1) (A2)
                 (B2) (A1) (B2) (B2) (A1) (A2) (B1) (B2) (A1) (B1)
                 (A1) (B2) (A1) (A1) (B2) (A2) (A2) (B1) (B2) (A1)
                 (B2) (A1) (A2) (B2) (A1) (B2) (B2) (A1) (B2) (B1)
                 (B1) (A2) (A1) (B2) (B1) (A1) (B2) (B1) (A2) (A1)
                 (B2) (A1) (A1) (B1) (A2) (B2) (A1) (A2) (B1) (A2)
                 (B2) (B1) (B2) (A1) (A1) (B1) (A2) (B2) (A1) (B2)
                 (B2) (A1) (A1) (A1) (B2) (A1) (A1) (B2) (B2) (A1)
                 (B2) (B2) (A1) (B2) (A1) (A1)
 The electronic state of the initial guess is 1-A1.
 Leave Link  401 at Tue Sep 30 16:58:53 2025, MaxMem=  4294967296 cpu:               4.6 elap:               0.3
 (Enter /software/sse/easybuild/prefix/software/Gaussian/16.C.01-avx2-nsc1/g16/l502.exe)
 Keep R1 ints in memory in symmetry-blocked form, NReq=1695226965.
 FoFCou: FMM=F IPFlag=           0 FMFlag=           0 FMFlg1=           0
         NFxFlg=           0 DoJE=F BraDBF=F KetDBF=F FulRan=T
         wScrn=  0.000000 ICntrl=       600 IOpCl=  0 I1Cent=           0 NGrid=           0
         NMat0=    1 NMatS0=  52003 NMatT0=    0 NMatD0=    1 NMtDS0=    0 NMtDT0=    0
 Petite list used in FoFCou.
 Closed shell SCF:
 Using DIIS extrapolation, IDIIS=  1040.
 NGot=  4294967296 LenX=  3951641360 LenY=  3951504019
 Requested convergence on RMS density matrix=1.00D-08 within 128 cycles.
 Requested convergence on MAX density matrix=1.00D-06.
 Requested convergence on             energy=1.00D-06.
 No special actions if energy rises.

 Cycle   1  Pass 1  IDiag  1:
 E= -204.441118739532    
 DIIS: error= 4.76D-02 at cycle   1 NSaved=   1.
 NSaved= 1 IEnMin= 1 EnMin= -204.441118739532     IErMin= 1 ErrMin= 4.76D-02
 ErrMax= 4.76D-02  0.00D+00 EMaxC= 1.00D-01 BMatC= 4.68D-01 BMatP= 4.68D-01
 IDIUse=3 WtCom= 5.24D-01 WtEn= 4.76D-01
 Coeff-Com:  0.100D+01
 Coeff-En:   0.100D+01
 Coeff:      0.100D+01
 Gap=     0.467 Goal=   None    Shift=    0.000
 GapD=    0.467 DampG=2.000 DampE=0.500 DampFc=1.0000 IDamp=-1.
 RMSDP=1.24D-03 MaxDP=1.16D-01              OVMax= 9.08D-02

 Cycle   2  Pass 1  IDiag  1:
 E= -204.588922081437     Delta-E=       -0.147803341905 Rises=F Damp=F
 DIIS: error= 1.62D-02 at cycle   2 NSaved=   2.
 NSaved= 2 IEnMin= 2 EnMin= -204.588922081437     IErMin= 2 ErrMin= 1.62D-02
 ErrMax= 1.62D-02  0.00D+00 EMaxC= 1.00D-01 BMatC= 4.06D-02 BMatP= 4.68D-01
 IDIUse=3 WtCom= 8.38D-01 WtEn= 1.62D-01
 Coeff-Com:  0.147D+00 0.853D+00
 Coeff-En:   0.000D+00 0.100D+01
 Coeff:      0.124D+00 0.876D+00
 Gap=     0.555 Goal=   None    Shift=    0.000
 RMSDP=3.60D-04 MaxDP=1.73D-02 DE=-1.48D-01 OVMax= 4.33D-02

 Cycle   3  Pass 1  IDiag  1:
 E= -204.614923935162     Delta-E=       -0.026001853725 Rises=F Damp=F
 DIIS: error= 5.45D-03 at cycle   3 NSaved=   3.
 NSaved= 3 IEnMin= 3 EnMin= -204.614923935162     IErMin= 3 ErrMin= 5.45D-03
 ErrMax= 5.45D-03  0.00D+00 EMaxC= 1.00D-01 BMatC= 3.88D-03 BMatP= 4.06D-02
 IDIUse=3 WtCom= 9.46D-01 WtEn= 5.45D-02
 Coeff-Com: -0.280D-01 0.198D+00 0.830D+00
 Coeff-En:   0.000D+00 0.000D+00 0.100D+01
 Coeff:     -0.265D-01 0.188D+00 0.839D+00
 Gap=     0.531 Goal=   None    Shift=    0.000
 RMSDP=7.95D-05 MaxDP=3.99D-03 DE=-2.60D-02 OVMax= 8.59D-03

 Cycle   4  Pass 1  IDiag  1:
 E= -204.617565930111     Delta-E=       -0.002641994949 Rises=F Damp=F
 DIIS: error= 7.76D-04 at cycle   4 NSaved=   4.
 NSaved= 4 IEnMin= 4 EnMin= -204.617565930111     IErMin= 4 ErrMin= 7.76D-04
 ErrMax= 7.76D-04  0.00D+00 EMaxC= 1.00D-01 BMatC= 2.52D-05 BMatP= 3.88D-03
 IDIUse=3 WtCom= 9.92D-01 WtEn= 7.76D-03
 Coeff-Com:  0.345D-02-0.399D-01-0.141D+00 0.118D+01
 Coeff-En:   0.000D+00 0.000D+00 0.000D+00 0.100D+01
 Coeff:      0.342D-02-0.396D-01-0.140D+00 0.118D+01
 Gap=     0.531 Goal=   None    Shift=    0.000
 RMSDP=1.53D-05 MaxDP=1.26D-03 DE=-2.64D-03 OVMax= 4.70D-03

 Cycle   5  Pass 1  IDiag  1:
 E= -204.617626183342     Delta-E=       -0.000060253231 Rises=F Damp=F
 DIIS: error= 2.11D-04 at cycle   5 NSaved=   5.
 NSaved= 5 IEnMin= 5 EnMin= -204.617626183342     IErMin= 5 ErrMin= 2.11D-04
 ErrMax= 2.11D-04  0.00D+00 EMaxC= 1.00D-01 BMatC= 5.50D-06 BMatP= 2.52D-05
 IDIUse=3 WtCom= 9.98D-01 WtEn= 2.11D-03
 Coeff-Com:  0.316D-02-0.263D-01-0.106D+00 0.249D+00 0.880D+00
 Coeff-En:   0.000D+00 0.000D+00 0.000D+00 0.000D+00 0.100D+01
 Coeff:      0.315D-02-0.262D-01-0.106D+00 0.249D+00 0.880D+00
 Gap=     0.531 Goal=   None    Shift=    0.000
 RMSDP=5.82D-06 MaxDP=4.26D-04 DE=-6.03D-05 OVMax= 8.51D-04

 Cycle   6  Pass 1  IDiag  1:
 E= -204.617634163581     Delta-E=       -0.000007980239 Rises=F Damp=F
 DIIS: error= 8.79D-05 at cycle   6 NSaved=   6.
 NSaved= 6 IEnMin= 6 EnMin= -204.617634163581     IErMin= 6 ErrMin= 8.79D-05
 ErrMax= 8.79D-05  0.00D+00 EMaxC= 1.00D-01 BMatC= 2.97D-07 BMatP= 5.50D-06
 IDIUse=1 WtCom= 1.00D+00 WtEn= 0.00D+00
 Coeff-Com: -0.567D-03 0.640D-02 0.241D-01-0.142D+00-0.120D+00 0.123D+01
 Coeff:     -0.567D-03 0.640D-02 0.241D-01-0.142D+00-0.120D+00 0.123D+01
 Gap=     0.532 Goal=   None    Shift=    0.000
 RMSDP=2.05D-06 MaxDP=1.64D-04 DE=-7.98D-06 OVMax= 6.22D-04

 Cycle   7  Pass 1  IDiag  1:
 E= -204.617635013733     Delta-E=       -0.000000850152 Rises=F Damp=F
 DIIS: error= 9.65D-06 at cycle   7 NSaved=   7.
 NSaved= 7 IEnMin= 7 EnMin= -204.617635013733     IErMin= 7 ErrMin= 9.65D-06
 ErrMax= 9.65D-06  0.00D+00 EMaxC= 1.00D-01 BMatC= 1.17D-08 BMatP= 2.97D-07
 IDIUse=1 WtCom= 1.00D+00 WtEn= 0.00D+00
 Coeff-Com: -0.416D-04 0.133D-03 0.149D-04 0.186D-01-0.193D-01-0.264D+00
 Coeff-Com:  0.126D+01
 Coeff:     -0.416D-04 0.133D-03 0.149D-04 0.186D-01-0.193D-01-0.264D+00
 Coeff:      0.126D+01
 Gap=     0.532 Goal=   None    Shift=    0.000
 RMSDP=4.00D-07 MaxDP=2.07D-05 DE=-8.50D-07 OVMax= 8.47D-05

 Cycle   8  Pass 1  IDiag  1:
 E= -204.617635038800     Delta-E=       -0.000000025067 Rises=F Damp=F
 DIIS: error= 9.80D-07 at cycle   8 NSaved=   8.
 NSaved= 8 IEnMin= 8 EnMin= -204.617635038800     IErMin= 8 ErrMin= 9.80D-07
 ErrMax= 9.80D-07  0.00D+00 EMaxC= 1.00D-01 BMatC= 1.14D-10 BMatP= 1.17D-08
 IDIUse=1 WtCom= 1.00D+00 WtEn= 0.00D+00
 Coeff-Com:  0.100D-04-0.833D-04-0.338D-03-0.206D-03 0.283D-02 0.187D-01
 Coeff-Com: -0.170D+00 0.115D+01
 Coeff:      0.100D-04-0.833D-04-0.338D-03-0.206D-03 0.283D-02 0.187D-01
 Coeff:     -0.170D+00 0.115D+01
 Gap=     0.532 Goal=   None    Shift=    0.000
 RMSDP=3.92D-08 MaxDP=2.35D-06 DE=-2.51D-08 OVMax= 4.95D-06

 Cycle   9  Pass 1  IDiag  1:
 E= -204.617635038988     Delta-E=       -0.000000000188 Rises=F Damp=F
 DIIS: error= 2.06D-07 at cycle   9 NSaved=   9.
 NSaved= 9 IEnMin= 9 EnMin= -204.617635038988     IErMin= 9 ErrMin= 2.06D-07
 ErrMax= 2.06D-07  0.00D+00 EMaxC= 1.00D-01 BMatC= 2.22D-12 BMatP= 1.14D-10
 IDIUse=1 WtCom= 1.00D+00 WtEn= 0.00D+00
 Coeff-Com: -0.137D-05 0.162D-04 0.693D-04-0.194D-03-0.514D-03 0.144D-03
 Coeff-Com:  0.174D-01-0.263D+00 0.125D+01
 Coeff:     -0.137D-05 0.162D-04 0.693D-04-0.194D-03-0.514D-03 0.144D-03
 Coeff:      0.174D-01-0.263D+00 0.125D+01
 Gap=     0.532 Goal=   None    Shift=    0.000
 RMSDP=6.79D-09 MaxDP=3.63D-07 DE=-1.88D-10 OVMax= 8.00D-07

 SCF Done:  E(RHF) =  -204.617635039     A.U. after    9 cycles
            NFock=  9  Conv=0.68D-08     -V/T= 2.0004
 KE= 2.045280034613D+02 PE=-7.417796595018D+02 EE= 1.974350494149D+02
 Leave Link  502 at Tue Sep 30 16:59:01 2025, MaxMem=  4294967296 cpu:             115.7 elap:               8.3
 (Enter /software/sse/easybuild/prefix/software/Gaussian/16.C.01-avx2-nsc1/g16/l601.exe)
 Copying SCF densities to generalized density rwf, IOpCl= 0 IROHF=0.
 SCF density gives NOpUse=  4 NOpAll=  4.

 **********************************************************************

            Population analysis using the SCF Density.

 **********************************************************************

 Orbital symmetries:
 BldTbl:  Degeneracy threshold= 1.00D-02
       Occupied  (B2) (A1) (A1) (A1) (A1) (A1) (B2) (A1) (B2) (A1)
                 (B2) (B2) (A1) (B1) (B1) (A2)
       Virtual   (A1) (B2) (A1) (B1) (B2) (A1) (A1) (B2) (B1) (A1)
                 (A2) (B1) (B2) (A1) (A1) (B2) (A1) (A1) (B2) (B2)
                 (B1) (B1) (A2) (B2) (A1) (A1) (A1) (B2) (A1) (B2)
                 (A1) (A2) (B1) (A2) (B1) (B2) (A1) (A1) (A1) (B2)
                 (B2) (B2) (A1) (A1) (B1) (A2) (B2) (A1) (B1) (B2)
                 (A1) (B2) (B2) (A1) (A2) (B1) (A1) (B2) (A1) (B2)
                 (A1) (B1) (A1) (A2) (B1) (A2) (B2) (A1) (B2) (A1)
                 (B2) (B2) (A1) (A1) (B1) (A2) (B1) (B2) (A1) (A1)
                 (B1) (A2) (B2) (A1) (B2) (A1) (B1) (A2) (A1) (B2)
                 (B1) (B2) (A1) (A2) (B1) (A1) (B2) (A2) (B1) (A1)
                 (B2) (A1) (A1) (B2) (A2) (B1) (A1) (B2) (A2) (A1)
                 (B2) (A2) (B1) (A1) (B2) (B2) (A1) (B1) (A2) (B2)
                 (A1) (A1) (B2) (A2) (B1) (B2) (A1) (B1) (A1) (B1)
                 (A2) (B2) (B2) (A1) (B2) (A1) (B2) (A1) (B1) (B1)
                 (A2) (A1) (B2) (A1) (B2) (A1) (A2) (B1) (A1) (B2)
                 (B1) (A1) (B2) (A2) (B2) (B2) (A1) (B1) (A2) (A1)
                 (B2) (A1) (A2) (B1) (B1) (A1) (B2) (A1) (A1) (B2)
                 (B2) (B2) (A1) (B1) (A2) (B2) (A1) (A2) (A2) (B1)
                 (B2) (A1) (B2) (A1) (B2) (B1) (B2) (A1) (A1) (A1)
                 (B2) (B1) (A2) (B2) (B1) (A1) (B1) (A2) (A1) (B2)
                 (B2) (A1) (A1) (B1) (A2) (B2) (A1) (B1) (A1) (A2)
                 (A1) (B2) (B2) (B1) (A2) (B1) (A2) (A1) (B2) (B1)
                 (B1) (A2) (A2) (A1) (B1) (B2) (A1) (A1) (B1) (A2)
                 (B2) (A1) (B2) (A1) (B2) (B1) (A2) (B2) (A1) (B1)
                 (A1) (B2) (A1) (A2) (A1) (B2) (A2) (B1) (B2) (A1)
                 (B2) (A1) (B2) (A1) (B2) (A2) (A1) (B2) (B2) (A1)
                 (B2) (B1) (B1) (A2) (B1) (A1) (B2) (A1) (B1) (A2)
                 (B2) (A1) (A1) (A2) (B1) (A2) (B1) (B2) (A1) (A2)
                 (B2) (B1) (B1) (A2) (B2) (A1) (A1) (B2) (A1) (B2)
                 (B2) (A1) (A1) (A1) (B2) (A1) (A1) (B2) (B2) (A1)
                 (B2) (B2) (A1) (B2) (A1) (A1)
 The electronic state is 1-A1.
 Alpha  occ. eigenvalues --  -15.79581 -15.79581 -15.79577 -11.60514  -1.56230
 Alpha  occ. eigenvalues --   -1.41230  -1.41229  -1.08860  -0.99620  -0.99620
 Alpha  occ. eigenvalues --   -0.87927  -0.87755  -0.87755  -0.82549  -0.63526
 Alpha  occ. eigenvalues --   -0.63526
 Alpha virt. eigenvalues --   -0.10365  -0.07980  -0.07980  -0.05672  -0.05261
 Alpha virt. eigenvalues --   -0.05261  -0.02207  -0.01664  -0.00766  -0.00343
 Alpha virt. eigenvalues --    0.00017   0.00017   0.00333   0.00333   0.02126
 Alpha virt. eigenvalues --    0.03726   0.03726   0.03943   0.03943   0.07855
 Alpha virt. eigenvalues --    0.08380   0.09301   0.09301   0.10796   0.10796
 Alpha virt. eigenvalues --    0.13207   0.16385   0.16385   0.17731   0.17731
 Alpha virt. eigenvalues --    0.17885   0.18690   0.21495   0.21552   0.21552
 Alpha virt. eigenvalues --    0.22588   0.22588   0.22929   0.24734   0.24734
 Alpha virt. eigenvalues --    0.24767   0.27114   0.27114   0.27986   0.28639
 Alpha virt. eigenvalues --    0.28639   0.29853   0.29853   0.32932   0.34424
 Alpha virt. eigenvalues --    0.36542   0.37457   0.39316   0.39316   0.40946
 Alpha virt. eigenvalues --    0.40946   0.46771   0.46771   0.48055   0.48055
 Alpha virt. eigenvalues --    0.48083   0.48376   0.53109   0.53257   0.54586
 Alpha virt. eigenvalues --    0.54586   0.55488   0.55488   0.57699   0.58182
 Alpha virt. eigenvalues --    0.58182   0.67344   0.67344   0.67779   0.70101
 Alpha virt. eigenvalues --    0.72423   0.72423   0.74243   0.74243   0.74696
 Alpha virt. eigenvalues --    0.79470   0.79470   0.82429   0.83098   0.83098
 Alpha virt. eigenvalues --    0.83225   0.83405   0.83405   0.84705   0.84706
 Alpha virt. eigenvalues --    0.88757   0.89671   0.89671   0.90585   0.90585
 Alpha virt. eigenvalues --    0.91653   0.92206   0.96455   0.97515   0.97960
 Alpha virt. eigenvalues --    0.97961   1.04232   1.07265   1.07266   1.07610
 Alpha virt. eigenvalues --    1.07610   1.07786   1.08916   1.12580   1.12580
 Alpha virt. eigenvalues --    1.12580   1.14237   1.14237   1.14837   1.14837
 Alpha virt. eigenvalues --    1.18425   1.18425   1.19823   1.19823   1.20496
 Alpha virt. eigenvalues --    1.23113   1.23378   1.23378   1.26292   1.31059
 Alpha virt. eigenvalues --    1.34416   1.34417   1.35501   1.38438   1.38906
 Alpha virt. eigenvalues --    1.38906   1.39612   1.40414   1.40414   1.49155
 Alpha virt. eigenvalues --    1.49155   1.57195   1.59329   1.62668   1.63608
 Alpha virt. eigenvalues --    1.63608   1.66647   1.66647   1.83831   1.83831
 Alpha virt. eigenvalues --    1.85281   1.86408   1.86408   1.87019   1.87019
 Alpha virt. eigenvalues --    1.89491   1.89493   1.89992   1.96011   1.98822
 Alpha virt. eigenvalues --    2.00460   2.00460   2.02982   2.02982   2.12049
 Alpha virt. eigenvalues --    2.16916   2.16916   2.22187   2.22187   2.24688
 Alpha virt. eigenvalues --    2.26734   2.26734   2.27428   2.32250   2.32250
 Alpha virt. eigenvalues --    2.38733   2.39431   2.39431   2.40134   2.40134
 Alpha virt. eigenvalues --    2.46162   2.46162   2.47801   2.54236   2.54236
 Alpha virt. eigenvalues --    2.61603   2.67191   2.72393   2.72394   2.87326
 Alpha virt. eigenvalues --    2.89550   2.91102   2.91102   2.98382   3.25854
 Alpha virt. eigenvalues --    3.25854   3.43392   3.43392   3.53004   3.56836
 Alpha virt. eigenvalues --    3.59419   3.61149   3.61149   3.62321   3.62321
 Alpha virt. eigenvalues --    3.79466   3.79466   3.80006   3.85686   3.85686
 Alpha virt. eigenvalues --    3.89502   3.89502   3.89966   3.92608   3.95762
 Alpha virt. eigenvalues --    3.97016   3.97016   4.08802   4.09957   4.09957
 Alpha virt. eigenvalues --    4.11788   4.11788   4.13206   4.13206   4.15416
 Alpha virt. eigenvalues --    4.22753   4.22754   4.26559   4.30617   4.31698
 Alpha virt. eigenvalues --    4.34458   4.34458   4.37640   4.40147   4.40147
 Alpha virt. eigenvalues --    4.42137   4.42137   4.52771   4.52772   4.55031
 Alpha virt. eigenvalues --    4.60768   4.60769   4.70553   4.70553   4.73897
 Alpha virt. eigenvalues --    4.74547   4.75554   4.79742   4.80248   4.83333
 Alpha virt. eigenvalues --    4.83333   4.90663   4.90664   4.97189   4.98840
 Alpha virt. eigenvalues --    4.98840   5.04378   5.09302   5.12440   5.12441
 Alpha virt. eigenvalues --    5.20924   5.22107   5.22107   5.26084   5.30220
 Alpha virt. eigenvalues --    5.30221   5.37752   5.40425   5.40425   5.41990
 Alpha virt. eigenvalues --    5.42230   5.42230   5.46561   5.55153   5.55153
 Alpha virt. eigenvalues --    5.61066   5.61066   5.78851   5.79847   5.79847
 Alpha virt. eigenvalues --    5.86280   5.86280   5.91418   5.91418   5.93739
 Alpha virt. eigenvalues --    5.94135   6.02966   6.18923   6.18923   6.18946
 Alpha virt. eigenvalues --    6.18947   6.24445   6.41855   6.51059   6.51059
 Alpha virt. eigenvalues --    6.70814   6.70814   6.75935   6.97201   6.97202
 Alpha virt. eigenvalues --    7.28331   7.39053   7.39053   7.60819   7.68041
 Alpha virt. eigenvalues --    7.68041   8.01552  17.27998  18.47822  18.47832
 Alpha virt. eigenvalues --   19.22691
          Condensed to atoms (all electrons):
               1          2          3          4          5          6
     1  C    4.889649   0.297685   0.297683   0.297683  -0.085043  -0.085043
     2  N    0.297685   6.310646  -0.139048  -0.139048   0.013283  -0.031140
     3  N    0.297683  -0.139048   6.310656  -0.139048   0.454186   0.454187
     4  N    0.297683  -0.139048  -0.139048   6.310656  -0.031140   0.013283
     5  H   -0.085043   0.013283   0.454186  -0.031140   0.610650  -0.105142
     6  H   -0.085043  -0.031140   0.454187   0.013283  -0.105142   0.610653
     7  H   -0.085044   0.454189   0.013283  -0.031141   0.000760  -0.000705
     8  H   -0.085044   0.454189  -0.031141   0.013283  -0.000705  -0.003004
     9  H   -0.085043  -0.031140   0.013283   0.454187  -0.000705   0.000760
    10  H   -0.085043   0.013283  -0.031140   0.454186  -0.003003  -0.000705
               7          8          9         10
     1  C   -0.085044  -0.085044  -0.085043  -0.085043
     2  N    0.454189   0.454189  -0.031140   0.013283
     3  N    0.013283  -0.031141   0.013283  -0.031140
     4  N   -0.031141   0.013283   0.454187   0.454186
     5  H    0.000760  -0.000705  -0.000705  -0.003003
     6  H   -0.000705  -0.003004   0.000760  -0.000705
     7  H    0.610657  -0.105144  -0.003004  -0.000705
     8  H   -0.105144   0.610657  -0.000705   0.000760
     9  H   -0.003004  -0.000705   0.610653  -0.105142
    10  H   -0.000705   0.000760  -0.105142   0.610650
 Mulliken charges:
               1
     1  C    0.727560
     2  N   -0.202897
     3  N   -0.202902
     4  N   -0.202902
     5  H    0.146859
     6  H    0.146856
     7  H    0.146854
     8  H    0.146854
     9  H    0.146856
    10  H    0.146859
 Sum of Mulliken charges =   1.00000
 Mulliken charges with hydrogens summed into heavy atoms:
               1
     1  C    0.727560
     2  N    0.090812
     3  N    0.090814
     4  N    0.090814
 DipInt: DoE/N= T F RetVal/Mat= T F Init=T NMatP=  1 IDeriv=0 Min/MaxMlt=  0  4
 Entering OneElI...
 OneElI was handed  4294616540 working-precision words.
 Multipole integrals L=0 to 4 MinM= 0 MaxM= 0.
 Requested accuracy = 0.1000D-12
 ShPair: Thresh= 1.00D-13 NBox=     0 BxSize= 0.00D+00 RnKept= 7.60D+00
         NSMCal=                 6105 NSMKep=                6102
 PrmmSu-InSpLW:  IPartL=    0 NPrtUS=    1 NPrtUL=    1 DoSpLW=F IThBeg=    0 IThEnd=    0 NThAct=    1.
 PrSmSu:  IncTry=   512 NBBP=           6102 NTPThr=   100 NPartT=    1 Incr=          61 LDynOK=F GPUOK=F.
 PrsmSu:  NPrtUS=   1 ThrOK=F IAlg=2 LenDen=           0 ISkipM=0 DoSpLW=F IThBeg=    0 IThEnd=    0.
 Prism:   IPart=     0 DynPar=F LinDyn=F Incr=          61.
 PRISM was handed  4294202602 working-precision words and  6102 shell-pairs
 IPart=  0 NShTot=        6102 NBatch=          73 AvBLen=        83.6
 PrsmSu-ThDecC:  IPartSL=    0    0 NPrtUSL=    1    1 IThBeg=    0 IThEnd=    0 CPU=   -1 GPU=   -1 NThAct=    1.
 PrSmSu:  NxtVal=             62.
 Electronic moments (au):
        -32.00000000          0.00000000          0.00000000         -0.00001191
        -19.46241076       -116.45788532       -116.45798809         -0.00000000
         -0.00000000          0.00000000          0.00000000          0.00000000
       -103.60874084          0.00000000         -0.00000000          0.00001880
          0.00000000          0.00000000        103.60901721          0.00000000
        -64.42648565       -992.22370020       -992.22454777         -0.00000000
         -0.00000000         -0.00000000          0.00000000         -0.00000000
         -0.00000000        -80.33977111        -80.33980686       -330.74130218
          0.00000000         -0.00000000         -0.00000000
 Electronic spatial extent (au):  <R**2>=            252.3783
 DipInt: DoE/N= F T RetVal/Mat= T F Init=T NMatP=  1 IDeriv=0 Min/MaxMlt=  0  4
 Nuclear    moments (au):
         33.00000000         -0.00000000          0.00000000         -0.00000000
          0.00000000        108.92756018        108.92763927          0.00000000
          0.00000000         -0.00000000         -0.00000000          0.00000000
        103.66012834         -0.00000000         -0.00000000         -0.00000000
         -0.00000000          0.00000000       -103.66082722         -0.00000000
          0.00000000        781.73702134        781.73708743          0.00000000
          0.00000000          0.00000000         -0.00000000          0.00000000
          0.00000000          0.00000000          0.00000000        260.57907839
          0.00000000          0.00000000          0.00000000
 Total      moments (au):
          1.00000000         -0.00000000          0.00000000         -0.00001191
        -19.46241076         -7.53032513         -7.53034881          0.00000000
          0.00000000          0.00000000          0.00000000          0.00000000
          0.05138749         -0.00000000         -0.00000000          0.00001880
          0.00000000          0.00000000         -0.05181001          0.00000000
        -64.42648565       -210.48667887       -210.48746034         -0.00000000
         -0.00000000         -0.00000000          0.00000000         -0.00000000
         -0.00000000        -80.33977111        -80.33980686        -70.16222379
          0.00000000         -0.00000000         -0.00000000
 Traceless Quadrup. (au):
         -7.95471586          3.97736977          3.97734609          0.00000000
          0.00000000          0.00000000
 Charge=              1.0000 electrons
 Dipole moment (field-independent basis, Debye):
    X=             -0.0000    Y=              0.0000    Z=             -0.0000  Tot=              0.0000
 Quadrupole moment (field-independent basis, Debye-Ang):
   XX=            -26.1776   YY=            -10.1285   ZZ=            -10.1286
   XY=              0.0000   XZ=              0.0000   YZ=              0.0000
 Traceless Quadrupole moment (field-independent basis, Debye-Ang):
   XX=            -10.6994   YY=              5.3497   ZZ=              5.3497
   XY=              0.0000   XZ=              0.0000   YZ=              0.0000
 Octapole moment (field-independent basis, Debye-Ang**2):
  XXX=              0.0000  YYY=              0.0000  ZZZ=              0.0366  XYY=             -0.0000
  XXY=             -0.0000  XXZ=              0.0000  XZZ=              0.0000  YZZ=              0.0000
  YYZ=             -0.0369  XYZ=              0.0000
 Hexadecapole moment (field-independent basis, Debye-Ang**3):
 XXXX=            -24.2661 YYYY=            -79.2794 ZZZZ=            -79.2797 XXXY=             -0.0000
 XXXZ=             -0.0000 YYYX=             -0.0000 YYYZ=              0.0000 ZZZX=             -0.0000
 ZZZY=             -0.0000 XXYY=            -30.2598 XXZZ=            -30.2598 YYZZ=            -26.4265
 XXYZ=              0.0000 YYXZ=             -0.0000 ZZXY=             -0.0000
 N-N= 1.351989715866D+02 E-N=-7.417796625184D+02  KE= 2.045280034613D+02
 Symmetry A1   KE= 1.378021469090D+02
 Symmetry A2   KE= 3.370239358495D+00
 Symmetry B1   KE= 5.985072456969D+00
 Symmetry B2   KE= 5.737054473677D+01
 SetAtRh:  ITypeU=  23 NETotI=      -1 ICharg=  0 NETot=      33.
 StAtR1:  I=    1 I1=    1 IA=  6 C=   6.0 OKShel=TTT
                                                  SSP
                                                  222
 StAtR1:  I=    2 I1=    2 IA=  7 C=   7.0 OKShel=TTT
                                                  SSP
                                                  223
 StAtR1:  I=    3 I1=    3 IA=  7 C=   7.0 OKShel=TTT
                                                  SSP
                                                  223
 StAtR1:  I=    4 I1=    4 IA=  7 C=   7.0 OKShel=TTT
                                                  SSP
                                                  223
 StAtR1:  I=    5 I1=    5 IA=  1 C=   1.0 OKShel=T
                                                  S
                                                  1
 StAtR1:  I=    6 I1=    6 IA=  1 C=   1.0 OKShel=T
                                                  S
                                                  1
 StAtR1:  I=    7 I1=    7 IA=  1 C=   1.0 OKShel=T
                                                  S
                                                  1
 StAtR1:  I=    8 I1=    8 IA=  1 C=   1.0 OKShel=T
                                                  S
                                                  1
 StAtR1:  I=    9 I1=    9 IA=  1 C=   1.0 OKShel=T
                                                  S
                                                  1
 StAtR1:  I=   10 I1=   10 IA=  1 C=   1.0 OKShel=T
                                                  S
                                                  1
          I=    1 IA=  6 I1=    1 NAtG=23 NE=   6.000 C=   6.000 Err= 1.75D-11
          I=    2 IA=  7 I1=    2 NAtG=22 NE=   7.000 C=   7.000 Err= 6.08D-13
          I=    3 IA=  7 I1=    3 NAtG=22 NE=   7.000 C=   7.000 Err= 6.08D-13
          I=    4 IA=  7 I1=    4 NAtG=22 NE=   7.000 C=   7.000 Err= 6.08D-13
          I=    5 IA=  1 I1=    5 NAtG=20 NE=   1.000 C=   1.000 Err= 2.80D-12
          I=    6 IA=  1 I1=    6 NAtG=20 NE=   1.000 C=   1.000 Err= 2.80D-12
          I=    7 IA=  1 I1=    7 NAtG=20 NE=   1.000 C=   1.000 Err= 2.80D-12
          I=    8 IA=  1 I1=    8 NAtG=20 NE=   1.000 C=   1.000 Err= 2.80D-12
          I=    9 IA=  1 I1=    9 NAtG=20 NE=   1.000 C=   1.000 Err= 2.80D-12
          I=   10 IA=  1 I1=   10 NAtG=20 NE=   1.000 C=   1.000 Err= 2.80D-12
 Pruned (  99, 590) grid will be used in numerical quadrature.
 IPart=  0 IRanGd=          0 ScrnBf=T ScrnGd=T RCrit=4.00D+00 DoMicB=T.
 CutRad = 1000.00    CtRdIn =    0.00    XCrit =  15.00   ICut = 0
 Pruned (  99, 590) grid will be used in numerical quadrature.
 IPart=  1 IRanGd=          0 ScrnBf=T ScrnGd=T RCrit=4.00D+00 DoMicB=T.
 CutRad = 1000.00    CtRdIn =    0.00    XCrit =  15.00   ICut = 0
 Pruned (  99, 590) grid will be used in numerical quadrature.
 Pruned (  99, 590) grid will be used in numerical quadrature.
 IPart=  6 IRanGd=          0 ScrnBf=T ScrnGd=T RCrit=4.00D+00 DoMicB=T.
 CutRad = 1000.00    CtRdIn =    0.00    XCrit =  15.00   ICut = 0
 IPart= 15 IRanGd=          0 ScrnBf=T ScrnGd=T RCrit=4.00D+00 DoMicB=T.
 Pruned (  99, 590) grid will be used in numerical quadrature.
 Pruned (  99, 590) grid will be used in numerical quadrature.
 Pruned (  99, 590) grid will be used in numerical quadrature.
 Pruned (  99, 590) grid will be used in numerical quadrature.
 CutRad = 1000.00    CtRdIn =    0.00    XCrit =  15.00   ICut = 0
 IPart= 12 IRanGd=          0 ScrnBf=T ScrnGd=T RCrit=4.00D+00 DoMicB=T.
 IPart= 13 IRanGd=          0 ScrnBf=T ScrnGd=T RCrit=4.00D+00 DoMicB=T.
 Pruned (  99, 590) grid will be used in numerical quadrature.
 IPart=  0 Atom number   1 atomic number  6 has       23114 grid points.
 Pruned (  99, 590) grid will be used in numerical quadrature.
 Pruned (  99, 590) grid will be used in numerical quadrature.
 IPart= 11 IRanGd=          0 ScrnBf=T ScrnGd=T RCrit=4.00D+00 DoMicB=T.
 CutRad = 1000.00    CtRdIn =    0.00    XCrit =  15.00   ICut = 0
 IPart=  4 IRanGd=          0 ScrnBf=T ScrnGd=T RCrit=4.00D+00 DoMicB=T.
 CutRad = 1000.00    CtRdIn =    0.00    XCrit =  15.00   ICut = 0
 CutRad = 1000.00    CtRdIn =    0.00    XCrit =  15.00   ICut = 0
 Pruned (  99, 590) grid will be used in numerical quadrature.
 IPart=  0 Atom   1 batch    1 overlaps   10 atoms,   110 shells and    10 DB shells.   NGrid=      2408
 Pruned (  99, 590) grid will be used in numerical quadrature.
 IPart=  8 IRanGd=          0 ScrnBf=T ScrnGd=T RCrit=4.00D+00 DoMicB=T.
 Pruned (  99, 590) grid will be used in numerical quadrature.
 IPart=  3 IRanGd=          0 ScrnBf=T ScrnGd=T RCrit=4.00D+00 DoMicB=T.
 Symmetry reduced    86 angular points to    86 for atom    1.
 IPart=  7 IRanGd=          0 ScrnBf=T ScrnGd=T RCrit=4.00D+00 DoMicB=T.
 Pruned (  99, 590) grid will be used in numerical quadrature.
 IPart= 10 IRanGd=          0 ScrnBf=T ScrnGd=T RCrit=4.00D+00 DoMicB=T.
 CutRad = 1000.00    CtRdIn =    0.00    XCrit =  15.00   ICut = 0
 CutRad = 1000.00    CtRdIn =    0.00    XCrit =  15.00   ICut = 0
 IPart=  9 IRanGd=          0 ScrnBf=T ScrnGd=T RCrit=4.00D+00 DoMicB=T.
 CutRad = 1000.00    CtRdIn =    0.00    XCrit =  15.00   ICut = 0
 CutRad = 1000.00    CtRdIn =    0.00    XCrit =  15.00   ICut = 0
 Pruned (  99, 590) grid will be used in numerical quadrature.
 CutRad = 1000.00    CtRdIn =    0.00    XCrit =  15.00   ICut = 0
 CutRad = 1000.00    CtRdIn =    0.00    XCrit =  15.00   ICut = 0
 IPart=  2 IRanGd=          0 ScrnBf=T ScrnGd=T RCrit=4.00D+00 DoMicB=T.
 Pruned (  99, 590) grid will be used in numerical quadrature.
 IPart=  5 IRanGd=          0 ScrnBf=T ScrnGd=T RCrit=4.00D+00 DoMicB=T.
 CutRad = 1000.00    CtRdIn =    0.00    XCrit =  15.00   ICut = 0
 CutRad = 1000.00    CtRdIn =    0.00    XCrit =  15.00   ICut = 0
 IPart= 14 IRanGd=          0 ScrnBf=T ScrnGd=T RCrit=4.00D+00 DoMicB=T.
 CutRad = 1000.00    CtRdIn =    0.00    XCrit =  15.00   ICut = 0
 Pruned (  99, 590) grid will be used in numerical quadrature.
 IPart=  1 Atom number   1 atomic number  6 has       23114 grid points.
 IPart=  1 Atom   1 batch    2 overlaps   10 atoms,   110 shells and    10 DB shells.   NGrid=      2522
 Pruned (  99, 590) grid will be used in numerical quadrature.
 Symmetry reduced   194 angular points to   194 for atom    1.
 IPart=  6 Atom number   1 atomic number  6 has       23114 grid points.
 IPart=  6 Atom   1 batch    3 overlaps   10 atoms,   110 shells and    10 DB shells.   NGrid=      2114
 Symmetry reduced   302 angular points to   302 for atom    1.
 Pruned (  99, 590) grid will be used in numerical quadrature.
 IPart= 15 Atom number   1 atomic number  6 has       23114 grid points.
 IPart= 15 Atom   1 batch    4 overlaps   10 atoms,   110 shells and    10 DB shells.   NGrid=      1180
 Symmetry reduced   590 angular points to   590 for atom    1.
 Pruned (  99, 590) grid will be used in numerical quadrature.
 IPart= 11 Atom number   1 atomic number  6 has       23114 grid points.
 Pruned (  99, 590) grid will be used in numerical quadrature.
 IPart= 11 Atom   1 batch    5 overlaps   10 atoms,   110 shells and    10 DB shells.   NGrid=      1180
 IPart=  4 Atom number   1 atomic number  6 has       23114 grid points.
 Pruned (  99, 590) grid will be used in numerical quadrature.
 Symmetry reduced   590 angular points to   590 for atom    1.
 IPart= 12 Atom number   1 atomic number  6 has       23114 grid points.
 IPart=  4 Atom   1 batch    6 overlaps   10 atoms,   110 shells and    10 DB shells.   NGrid=      1180
 IPart= 12 Atom   1 batch    7 overlaps   10 atoms,   110 shells and    10 DB shells.   NGrid=      1180
 Symmetry reduced   590 angular points to   590 for atom    1.
 Symmetry reduced   590 angular points to   590 for atom    1.
 Pruned (  99, 590) grid will be used in numerical quadrature.
 Pruned (  99, 590) grid will be used in numerical quadrature.
 IPart= 13 Atom number   1 atomic number  6 has       23114 grid points.
 Pruned (  99, 590) grid will be used in numerical quadrature.
 IPart= 13 Atom   1 batch    8 overlaps   10 atoms,   110 shells and    10 DB shells.   NGrid=      1180
 IPart=  9 Atom number   1 atomic number  6 has       23114 grid points.
 IPart= 10 Atom number   1 atomic number  6 has       23114 grid points.
 IPart=  9 Atom   1 batch   10 overlaps   10 atoms,   110 shells and    10 DB shells.   NGrid=      1180
 IPart= 10 Atom   1 batch    9 overlaps   10 atoms,   110 shells and    10 DB shells.   NGrid=      1180
 Pruned (  99, 590) grid will be used in numerical quadrature.
 Symmetry reduced   590 angular points to   590 for atom    1.
 IPart=  3 Atom number   1 atomic number  6 has       23114 grid points.
 Symmetry reduced   590 angular points to   590 for atom    1.
 Pruned (  99, 590) grid will be used in numerical quadrature.
 Pruned (  99, 590) grid will be used in numerical quadrature.
 IPart=  5 Atom number   1 atomic number  6 has       23114 grid points.
 Pruned (  99, 590) grid will be used in numerical quadrature.
 Pruned (  99, 590) grid will be used in numerical quadrature.
 IPart= 14 Atom number   1 atomic number  6 has       23114 grid points.
 IPart=  2 Atom number   1 atomic number  6 has       23114 grid points.
 IPart=  5 Atom   1 batch   12 overlaps   10 atoms,   109 shells and    10 DB shells.   NGrid=       590
 IPart=  8 Atom number   1 atomic number  6 has       23114 grid points.
 IPart=  2 Atom   1 batch   14 overlaps   10 atoms,   106 shells and    10 DB shells.   NGrid=       604
 Symmetry reduced   590 angular points to   590 for atom    1.
 IPart=  8 Atom   1 batch   13 overlaps   10 atoms,   109 shells and    10 DB shells.   NGrid=       604
 IPart= 14 Atom   1 batch   15 overlaps   10 atoms,   103 shells and    10 DB shells.   NGrid=       604
 Symmetry reduced   302 angular points to   302 for atom    1.
 IPart=  3 Atom   1 batch   11 overlaps   10 atoms,   109 shells and    10 DB shells.   NGrid=      1180
 Symmetry reduced   302 angular points to   302 for atom    1.
 Symmetry reduced   590 angular points to   590 for atom    1.
 Symmetry reduced   302 angular points to   302 for atom    1.
 Symmetry reduced   590 angular points to   590 for atom    1.
 Pruned (  99, 590) grid will be used in numerical quadrature.
 IPart=  7 Atom number   1 atomic number  6 has       23114 grid points.
 IPart=  7 Atom   1 batch   16 overlaps   10 atoms,    93 shells and    10 DB shells.   NGrid=       604
 Symmetry reduced   302 angular points to   302 for atom    1.
 IPart=  7 Atom   1 batch   17 overlaps   10 atoms,    78 shells and    10 DB shells.   NGrid=       604
 IPart= 14 Atom   1 batch   18 overlaps   10 atoms,    60 shells and    10 DB shells.   NGrid=       604
 IPart=  2 Atom   1 batch   19 overlaps   10 atoms,    44 shells and    10 DB shells.   NGrid=       604
 IPart= 14 Atom   1 batch   20 overlaps   10 atoms,    27 shells and     6 DB shells.   NGrid=       604
 IPart=  7 Atom   1 batch   21 overlaps   10 atoms,    14 shells and     0 DB shells.   NGrid=       604
 IPart= 14 Atom   1 batch   22 overlaps   10 atoms,     6 shells and     0 DB shells.   NGrid=       604
 Pruned (  99, 590) grid will be used in numerical quadrature.
 IPart=  2 Atom number   2 atomic number  7 has       23416 grid points.
 IPart=  2 Atom   2 batch    1 overlaps   10 atoms,   104 shells and    10 DB shells.   NGrid=      2408
 Symmetry reduced    86 angular points to    86 for atom    2.
 Pruned (  99, 590) grid will be used in numerical quadrature.
 Pruned (  99, 590) grid will be used in numerical quadrature.
 IPart=  7 Atom number   2 atomic number  7 has       23416 grid points.
 IPart=  5 Atom number   2 atomic number  7 has       23416 grid points.
 IPart=  7 Atom   2 batch    2 overlaps   10 atoms,   106 shells and    10 DB shells.   NGrid=      2522
 IPart=  5 Atom   2 batch    3 overlaps   10 atoms,   108 shells and    10 DB shells.   NGrid=      2114
 Symmetry reduced   194 angular points to   194 for atom    2.
 Symmetry reduced   302 angular points to   302 for atom    2.
 Pruned (  99, 590) grid will be used in numerical quadrature.
 IPart= 14 Atom number   2 atomic number  7 has       23416 grid points.
 IPart= 14 Atom   2 batch    4 overlaps   10 atoms,   108 shells and    10 DB shells.   NGrid=      1180
 Symmetry reduced   590 angular points to   590 for atom    2.
 Pruned (  99, 590) grid will be used in numerical quadrature.
 IPart=  8 Atom number   2 atomic number  7 has       23416 grid points.
 IPart=  8 Atom   2 batch    5 overlaps   10 atoms,   108 shells and    10 DB shells.   NGrid=      1180
 Symmetry reduced   590 angular points to   590 for atom    2.
 Pruned (  99, 590) grid will be used in numerical quadrature.
 IPart=  3 Atom number   2 atomic number  7 has       23416 grid points.
 IPart=  3 Atom   2 batch    6 overlaps   10 atoms,   110 shells and    10 DB shells.   NGrid=      1180
 Symmetry reduced   590 angular points to   590 for atom    2.
 Pruned (  99, 590) grid will be used in numerical quadrature.
 IPart=  9 Atom number   2 atomic number  7 has       23416 grid points.
 IPart=  9 Atom   2 batch    7 overlaps   10 atoms,   110 shells and    10 DB shells.   NGrid=      1180
 Symmetry reduced   590 angular points to   590 for atom    2.
 Pruned (  99, 590) grid will be used in numerical quadrature.
 Pruned (  99, 590) grid will be used in numerical quadrature.
 IPart= 11 Atom number   2 atomic number  7 has       23416 grid points.
 IPart= 12 Atom number   2 atomic number  7 has       23416 grid points.
 IPart= 11 Atom   2 batch    8 overlaps   10 atoms,   110 shells and    10 DB shells.   NGrid=      1180
 IPart= 12 Atom   2 batch    9 overlaps   10 atoms,   110 shells and    10 DB shells.   NGrid=      1180
 Symmetry reduced   590 angular points to   590 for atom    2.
 Symmetry reduced   590 angular points to   590 for atom    2.
 Pruned (  99, 590) grid will be used in numerical quadrature.
 IPart= 15 Atom number   2 atomic number  7 has       23416 grid points.
 IPart= 15 Atom   2 batch   10 overlaps   10 atoms,   110 shells and    10 DB shells.   NGrid=      1180
 Symmetry reduced   590 angular points to   590 for atom    2.
 Pruned (  99, 590) grid will be used in numerical quadrature.
 IPart= 10 Atom number   2 atomic number  7 has       23416 grid points.
 IPart= 10 Atom   2 batch   11 overlaps   10 atoms,   110 shells and    10 DB shells.   NGrid=      1180
 Symmetry reduced   590 angular points to   590 for atom    2.
 Pruned (  99, 590) grid will be used in numerical quadrature.
 IPart=  4 Atom number   2 atomic number  7 has       23416 grid points.
 IPart=  4 Atom   2 batch   12 overlaps   10 atoms,   109 shells and    10 DB shells.   NGrid=       590
 Symmetry reduced   590 angular points to   590 for atom    2.
 Pruned (  99, 590) grid will be used in numerical quadrature.
 IPart= 13 Atom number   2 atomic number  7 has       23416 grid points.
 IPart= 13 Atom   2 batch   13 overlaps   10 atoms,   109 shells and    10 DB shells.   NGrid=       604
 Symmetry reduced   302 angular points to   302 for atom    2.
 IPart= 14 Atom   2 batch   14 overlaps   10 atoms,   109 shells and    10 DB shells.   NGrid=       604
 Symmetry reduced   302 angular points to   302 for atom    2.
 IPart=  4 Atom   2 batch   15 overlaps   10 atoms,   107 shells and    10 DB shells.   NGrid=       604
 Symmetry reduced   302 angular points to   302 for atom    2.
 IPart=  8 Atom   2 batch   16 overlaps   10 atoms,   104 shells and    10 DB shells.   NGrid=       604
 Symmetry reduced   302 angular points to   302 for atom    2.
 IPart= 13 Atom   2 batch   17 overlaps   10 atoms,    98 shells and    10 DB shells.   NGrid=       604
 Pruned (  99, 590) grid will be used in numerical quadrature.
 IPart= 13 Atom   2 batch   19 overlaps   10 atoms,    62 shells and    10 DB shells.   NGrid=       604
 IPart=  6 Atom number   2 atomic number  7 has       23416 grid points.
 IPart=  6 Atom   2 batch   18 overlaps   10 atoms,    83 shells and    10 DB shells.   NGrid=       604
 IPart=  8 Atom   2 batch   20 overlaps   10 atoms,    41 shells and     9 DB shells.   NGrid=       604
 Symmetry reduced   302 angular points to   302 for atom    2.
 IPart=  8 Atom   2 batch   21 overlaps   10 atoms,    23 shells and     4 DB shells.   NGrid=       604
 IPart=  3 Atom   2 batch   22 overlaps   10 atoms,    12 shells and     0 DB shells.   NGrid=       604
 Symmetry reduced   302 angular points to   302 for atom    2.
 IPart= 13 Atom   2 batch   23 overlaps   10 atoms,     4 shells and     0 DB shells.   NGrid=       302
 Pruned (  99, 590) grid will be used in numerical quadrature.
 IPart=  8 Atom number   3 atomic number  7 has       23416 grid points.
 IPart=  8 Atom   3 batch    1 overlaps   10 atoms,   104 shells and    10 DB shells.   NGrid=      2408
 Pruned (  99, 590) grid will be used in numerical quadrature.
 Symmetry reduced    86 angular points to    86 for atom    3.
 IPart=  4 Atom number   3 atomic number  7 has       23416 grid points.
 IPart=  4 Atom   3 batch    2 overlaps   10 atoms,   106 shells and    10 DB shells.   NGrid=      2522
 Symmetry reduced   194 angular points to   194 for atom    3.
 Pruned (  99, 590) grid will be used in numerical quadrature.
 IPart= 13 Atom number   3 atomic number  7 has       23416 grid points.
 IPart= 13 Atom   3 batch    3 overlaps   10 atoms,   108 shells and    10 DB shells.   NGrid=      2114
 Symmetry reduced   302 angular points to   302 for atom    3.
 Pruned (  99, 590) grid will be used in numerical quadrature.
 IPart=  3 Atom number   3 atomic number  7 has       23416 grid points.
 IPart=  3 Atom   3 batch    4 overlaps   10 atoms,   108 shells and    10 DB shells.   NGrid=      1180
 Symmetry reduced   590 angular points to   590 for atom    3.
 Pruned (  99, 590) grid will be used in numerical quadrature.
 IPart=  0 Atom number   2 atomic number  7 has       23416 grid points.
 Pruned (  99, 590) grid will be used in numerical quadrature.
 IPart=  0 Atom number   3 atomic number  7 has       23416 grid points.
 IPart=  0 Atom   3 batch    5 overlaps   10 atoms,   108 shells and    10 DB shells.   NGrid=      1180
 Symmetry reduced   590 angular points to   590 for atom    3.
 Pruned (  99, 590) grid will be used in numerical quadrature.
 IPart= 14 Atom number   3 atomic number  7 has       23416 grid points.
 IPart= 14 Atom   3 batch    6 overlaps   10 atoms,   110 shells and    10 DB shells.   NGrid=      1180
 Symmetry reduced   590 angular points to   590 for atom    3.
 Pruned (  99, 590) grid will be used in numerical quadrature.
 IPart= 10 Atom number   3 atomic number  7 has       23416 grid points.
 IPart= 10 Atom   3 batch    7 overlaps   10 atoms,   110 shells and    10 DB shells.   NGrid=      1180
 Symmetry reduced   590 angular points to   590 for atom    3.
 Pruned (  99, 590) grid will be used in numerical quadrature.
 IPart=  6 Atom number   3 atomic number  7 has       23416 grid points.
 IPart=  6 Atom   3 batch    8 overlaps   10 atoms,   110 shells and    10 DB shells.   NGrid=      1180
 Symmetry reduced   590 angular points to   590 for atom    3.
 Pruned (  99, 590) grid will be used in numerical quadrature.
 Pruned (  99, 590) grid will be used in numerical quadrature.
 IPart= 12 Atom number   3 atomic number  7 has       23416 grid points.
 IPart=  9 Atom number   3 atomic number  7 has       23416 grid points.
 IPart= 12 Atom   3 batch    9 overlaps   10 atoms,   110 shells and    10 DB shells.   NGrid=      1180
 IPart=  9 Atom   3 batch   10 overlaps   10 atoms,   110 shells and    10 DB shells.   NGrid=      1180
 Symmetry reduced   590 angular points to   590 for atom    3.
 Symmetry reduced   590 angular points to   590 for atom    3.
 Pruned (  99, 590) grid will be used in numerical quadrature.
 IPart= 15 Atom number   3 atomic number  7 has       23416 grid points.
 IPart= 15 Atom   3 batch   11 overlaps   10 atoms,   110 shells and    10 DB shells.   NGrid=      1180
 Symmetry reduced   590 angular points to   590 for atom    3.
 Pruned (  99, 590) grid will be used in numerical quadrature.
 IPart= 11 Atom number   3 atomic number  7 has       23416 grid points.
 IPart= 11 Atom   3 batch   12 overlaps   10 atoms,   109 shells and    10 DB shells.   NGrid=       590
 Symmetry reduced   590 angular points to   590 for atom    3.
 Pruned (  99, 590) grid will be used in numerical quadrature.
 IPart=  1 Atom number   2 atomic number  7 has       23416 grid points.
 Pruned (  99, 590) grid will be used in numerical quadrature.
 IPart=  1 Atom number   3 atomic number  7 has       23416 grid points.
 IPart=  1 Atom   3 batch   13 overlaps   10 atoms,   109 shells and    10 DB shells.   NGrid=       604
 Symmetry reduced   302 angular points to   302 for atom    3.
 Pruned (  99, 590) grid will be used in numerical quadrature.
 IPart=  2 Atom number   3 atomic number  7 has       23416 grid points.
 IPart=  2 Atom   3 batch   14 overlaps   10 atoms,   109 shells and    10 DB shells.   NGrid=       604
 Symmetry reduced   302 angular points to   302 for atom    3.
 Pruned (  99, 590) grid will be used in numerical quadrature.
 IPart=  5 Atom number   3 atomic number  7 has       23416 grid points.
 IPart=  5 Atom   3 batch   15 overlaps   10 atoms,   107 shells and    10 DB shells.   NGrid=       604
 Symmetry reduced   302 angular points to   302 for atom    3.
 Pruned (  99, 590) grid will be used in numerical quadrature.
 IPart=  7 Atom number   3 atomic number  7 has       23416 grid points.
 IPart=  7 Atom   3 batch   16 overlaps   10 atoms,   104 shells and    10 DB shells.   NGrid=       604
 Symmetry reduced   302 angular points to   302 for atom    3.
 IPart= 11 Atom   3 batch   17 overlaps   10 atoms,    98 shells and    10 DB shells.   NGrid=       604
 Symmetry reduced   302 angular points to   302 for atom    3.
 IPart=  2 Atom   3 batch   18 overlaps   10 atoms,    83 shells and    10 DB shells.   NGrid=       604
 IPart=  1 Atom   3 batch   19 overlaps   10 atoms,    62 shells and    10 DB shells.   NGrid=       604
 IPart=  5 Atom   3 batch   20 overlaps   10 atoms,    41 shells and     9 DB shells.   NGrid=       604
 IPart=  5 Atom   3 batch   21 overlaps   10 atoms,    23 shells and     4 DB shells.   NGrid=       604
 IPart=  7 Atom   3 batch   22 overlaps   10 atoms,    12 shells and     0 DB shells.   NGrid=       604
 IPart=  1 Atom   3 batch   23 overlaps   10 atoms,     4 shells and     0 DB shells.   NGrid=       302
 Pruned (  99, 590) grid will be used in numerical quadrature.
 IPart=  5 Atom number   4 atomic number  7 has       23416 grid points.
 IPart=  5 Atom   4 batch    1 overlaps   10 atoms,   104 shells and    10 DB shells.   NGrid=      2408
 Symmetry reduced    86 angular points to    86 for atom    4.
 Pruned (  99, 590) grid will be used in numerical quadrature.
 IPart=  1 Atom number   4 atomic number  7 has       23416 grid points.
 IPart=  1 Atom   4 batch    2 overlaps   10 atoms,   106 shells and    10 DB shells.   NGrid=      2522
 Symmetry reduced   194 angular points to   194 for atom    4.
 Pruned (  99, 590) grid will be used in numerical quadrature.
 IPart=  7 Atom number   4 atomic number  7 has       23416 grid points.
 IPart=  7 Atom   4 batch    3 overlaps   10 atoms,   108 shells and    10 DB shells.   NGrid=      2114
 Pruned (  99, 590) grid will be used in numerical quadrature.
 Symmetry reduced   302 angular points to   302 for atom    4.
 IPart= 11 Atom number   4 atomic number  7 has       23416 grid points.
 IPart= 11 Atom   4 batch    4 overlaps   10 atoms,   108 shells and    10 DB shells.   NGrid=      1180
 Symmetry reduced   590 angular points to   590 for atom    4.
 Pruned (  99, 590) grid will be used in numerical quadrature.
 IPart=  2 Atom number   4 atomic number  7 has       23416 grid points.
 IPart=  2 Atom   4 batch    5 overlaps   10 atoms,   108 shells and    10 DB shells.   NGrid=      1180
 Symmetry reduced   590 angular points to   590 for atom    4.
 Pruned (  99, 590) grid will be used in numerical quadrature.
 IPart=  3 Atom number   4 atomic number  7 has       23416 grid points.
 IPart=  3 Atom   4 batch    6 overlaps   10 atoms,   110 shells and    10 DB shells.   NGrid=      1180
 Symmetry reduced   590 angular points to   590 for atom    4.
 Pruned (  99, 590) grid will be used in numerical quadrature.
 IPart=  0 Atom number   4 atomic number  7 has       23416 grid points.
 IPart=  0 Atom   4 batch    7 overlaps   10 atoms,   110 shells and    10 DB shells.   NGrid=      1180
 Symmetry reduced   590 angular points to   590 for atom    4.
 Pruned (  99, 590) grid will be used in numerical quadrature.
 Pruned (  99, 590) grid will be used in numerical quadrature.
 IPart= 10 Atom number   4 atomic number  7 has       23416 grid points.
 IPart= 14 Atom number   4 atomic number  7 has       23416 grid points.
 IPart= 10 Atom   4 batch    8 overlaps   10 atoms,   110 shells and    10 DB shells.   NGrid=      1180
 IPart= 14 Atom   4 batch    9 overlaps   10 atoms,   110 shells and    10 DB shells.   NGrid=      1180
 Symmetry reduced   590 angular points to   590 for atom    4.
 Symmetry reduced   590 angular points to   590 for atom    4.
 Pruned (  99, 590) grid will be used in numerical quadrature.
 IPart= 15 Atom number   4 atomic number  7 has       23416 grid points.
 IPart= 15 Atom   4 batch   10 overlaps   10 atoms,   110 shells and    10 DB shells.   NGrid=      1180
 Symmetry reduced   590 angular points to   590 for atom    4.
 Pruned (  99, 590) grid will be used in numerical quadrature.
 IPart= 12 Atom number   4 atomic number  7 has       23416 grid points.
 IPart= 12 Atom   4 batch   11 overlaps   10 atoms,   110 shells and    10 DB shells.   NGrid=      1180
 Symmetry reduced   590 angular points to   590 for atom    4.
 Pruned (  99, 590) grid will be used in numerical quadrature.
 Pruned (  99, 590) grid will be used in numerical quadrature.
 IPart=  6 Atom number   4 atomic number  7 has       23416 grid points.
 IPart=  9 Atom number   4 atomic number  7 has       23416 grid points.
 IPart=  6 Atom   4 batch   12 overlaps   10 atoms,   109 shells and    10 DB shells.   NGrid=       590
 IPart=  9 Atom   4 batch   13 overlaps   10 atoms,   109 shells and    10 DB shells.   NGrid=       604
 Symmetry reduced   590 angular points to   590 for atom    4.
 Symmetry reduced   302 angular points to   302 for atom    4.
 IPart=  6 Atom   4 batch   14 overlaps   10 atoms,   109 shells and    10 DB shells.   NGrid=       604
 Symmetry reduced   302 angular points to   302 for atom    4.
 IPart=  9 Atom   4 batch   15 overlaps   10 atoms,   107 shells and    10 DB shells.   NGrid=       604
 Pruned (  99, 590) grid will be used in numerical quadrature.
 IPart=  8 Atom number   4 atomic number  7 has       23416 grid points.
 IPart=  8 Atom   4 batch   16 overlaps   10 atoms,   104 shells and    10 DB shells.   NGrid=       604
 Symmetry reduced   302 angular points to   302 for atom    4.
 Pruned (  99, 590) grid will be used in numerical quadrature.
 IPart= 13 Atom number   4 atomic number  7 has       23416 grid points.
 IPart= 13 Atom   4 batch   17 overlaps   10 atoms,    98 shells and    10 DB shells.   NGrid=       604
 Symmetry reduced   302 angular points to   302 for atom    4.
 IPart= 11 Atom   4 batch   18 overlaps   10 atoms,    83 shells and    10 DB shells.   NGrid=       604
 Symmetry reduced   302 angular points to   302 for atom    4.
 IPart=  2 Atom   4 batch   19 overlaps   10 atoms,    62 shells and    10 DB shells.   NGrid=       604
 Symmetry reduced   302 angular points to   302 for atom    4.
 Pruned (  99, 590) grid will be used in numerical quadrature.
 IPart=  4 Atom number   4 atomic number  7 has       23416 grid points.
 IPart=  4 Atom   4 batch   20 overlaps   10 atoms,    41 shells and     9 DB shells.   NGrid=       604
 Symmetry reduced   302 angular points to   302 for atom    4.
 IPart=  2 Atom   4 batch   21 overlaps   10 atoms,    23 shells and     4 DB shells.   NGrid=       604
 IPart=  4 Atom   4 batch   22 overlaps   10 atoms,    12 shells and     0 DB shells.   NGrid=       604
 IPart= 11 Atom   4 batch   23 overlaps   10 atoms,     4 shells and     0 DB shells.   NGrid=       302
 Pruned (  99, 590) grid will be used in numerical quadrature.
 IPart=  2 Atom number   5 atomic number  1 has       23466 grid points.
 Pruned (  99, 590) grid will be used in numerical quadrature.
 IPart=  2 Atom   5 batch    1 overlaps   10 atoms,    97 shells and    10 DB shells.   NGrid=      2838
 IPart= 11 Atom number   5 atomic number  1 has       23466 grid points.
 Symmetry reduced    86 angular points to    86 for atom    5.
 IPart= 11 Atom   5 batch    2 overlaps   10 atoms,    99 shells and    10 DB shells.   NGrid=      1552
 Symmetry reduced   194 angular points to   194 for atom    5.
 Pruned (  99, 590) grid will be used in numerical quadrature.
 IPart= 13 Atom number   5 atomic number  1 has       23466 grid points.
 IPart= 13 Atom   5 batch    3 overlaps   10 atoms,   102 shells and    10 DB shells.   NGrid=      2416
 Symmetry reduced   302 angular points to   302 for atom    5.
 Pruned (  99, 590) grid will be used in numerical quadrature.
 IPart=  8 Atom number   5 atomic number  1 has       23466 grid points.
 IPart=  8 Atom   5 batch    4 overlaps   10 atoms,   103 shells and    10 DB shells.   NGrid=      1180
 Symmetry reduced   590 angular points to   590 for atom    5.
 Pruned (  99, 590) grid will be used in numerical quadrature.
 IPart=  4 Atom number   5 atomic number  1 has       23466 grid points.
 IPart=  4 Atom   5 batch    5 overlaps   10 atoms,   106 shells and    10 DB shells.   NGrid=      1180
 Symmetry reduced   590 angular points to   590 for atom    5.
 Pruned (  99, 590) grid will be used in numerical quadrature.
 IPart=  3 Atom number   5 atomic number  1 has       23466 grid points.
 IPart=  3 Atom   5 batch    6 overlaps   10 atoms,   106 shells and    10 DB shells.   NGrid=      1180
 Symmetry reduced   590 angular points to   590 for atom    5.
 Pruned (  99, 590) grid will be used in numerical quadrature.
 IPart=  0 Atom number   5 atomic number  1 has       23466 grid points.
 IPart=  0 Atom   5 batch    7 overlaps   10 atoms,   107 shells and    10 DB shells.   NGrid=      1180
 Symmetry reduced   590 angular points to   590 for atom    5.
 Pruned (  99, 590) grid will be used in numerical quadrature.
 IPart= 12 Atom number   5 atomic number  1 has       23466 grid points.
 IPart= 12 Atom   5 batch    8 overlaps   10 atoms,   108 shells and    10 DB shells.   NGrid=      1180
 Symmetry reduced   590 angular points to   590 for atom    5.
 Pruned (  99, 590) grid will be used in numerical quadrature.
 IPart=  9 Atom number   5 atomic number  1 has       23466 grid points.
 IPart=  9 Atom   5 batch    9 overlaps   10 atoms,   109 shells and    10 DB shells.   NGrid=      1180
 Symmetry reduced   590 angular points to   590 for atom    5.
 Pruned (  99, 590) grid will be used in numerical quadrature.
 IPart= 14 Atom number   5 atomic number  1 has       23466 grid points.
 IPart= 14 Atom   5 batch   10 overlaps   10 atoms,   109 shells and    10 DB shells.   NGrid=      1180
 Symmetry reduced   590 angular points to   590 for atom    5.
 Pruned (  99, 590) grid will be used in numerical quadrature.
 IPart= 15 Atom number   5 atomic number  1 has       23466 grid points.
 IPart= 15 Atom   5 batch   11 overlaps   10 atoms,   110 shells and    10 DB shells.   NGrid=      1180
 Symmetry reduced   590 angular points to   590 for atom    5.
 Pruned (  99, 590) grid will be used in numerical quadrature.
 IPart=  6 Atom number   5 atomic number  1 has       23466 grid points.
 Pruned (  99, 590) grid will be used in numerical quadrature.
 IPart=  6 Atom   5 batch   12 overlaps   10 atoms,   110 shells and    10 DB shells.   NGrid=      1180
 IPart= 10 Atom number   5 atomic number  1 has       23466 grid points.
 Symmetry reduced   590 angular points to   590 for atom    5.
 IPart= 10 Atom   5 batch   13 overlaps   10 atoms,   110 shells and    10 DB shells.   NGrid=       604
 Symmetry reduced   302 angular points to   302 for atom    5.
 Pruned (  99, 590) grid will be used in numerical quadrature.
 IPart=  5 Atom number   5 atomic number  1 has       23466 grid points.
 IPart=  5 Atom   5 batch   14 overlaps   10 atoms,   109 shells and    10 DB shells.   NGrid=       604
 Symmetry reduced   302 angular points to   302 for atom    5.
 Pruned (  99, 590) grid will be used in numerical quadrature.
 IPart=  7 Atom number   5 atomic number  1 has       23466 grid points.
 IPart=  7 Atom   5 batch   15 overlaps   10 atoms,   106 shells and    10 DB shells.   NGrid=       604
 Symmetry reduced   302 angular points to   302 for atom    5.
 IPart= 10 Atom   5 batch   16 overlaps   10 atoms,   101 shells and    10 DB shells.   NGrid=       604
 Pruned (  99, 590) grid will be used in numerical quadrature.
 IPart=  1 Atom number   5 atomic number  1 has       23466 grid points.
 IPart=  1 Atom   5 batch   17 overlaps   10 atoms,    92 shells and    10 DB shells.   NGrid=       604
 Symmetry reduced   302 angular points to   302 for atom    5.
 IPart=  5 Atom   5 batch   18 overlaps   10 atoms,    72 shells and    10 DB shells.   NGrid=       604
 IPart=  8 Atom   5 batch   20 overlaps   10 atoms,    29 shells and     5 DB shells.   NGrid=       604
 IPart= 10 Atom   5 batch   19 overlaps   10 atoms,    50 shells and     9 DB shells.   NGrid=       604
 Symmetry reduced   302 angular points to   302 for atom    5.
 IPart=  7 Atom   5 batch   21 overlaps   10 atoms,    13 shells and     0 DB shells.   NGrid=       604
 IPart=  1 Atom   5 batch   22 overlaps   10 atoms,     5 shells and     0 DB shells.   NGrid=       604
 Pruned (  99, 590) grid will be used in numerical quadrature.
 IPart=  8 Atom number   6 atomic number  1 has       23466 grid points.
 Pruned (  99, 590) grid will be used in numerical quadrature.
 IPart=  8 Atom   6 batch    1 overlaps   10 atoms,    97 shells and    10 DB shells.   NGrid=      2838
 IPart=  4 Atom number   6 atomic number  1 has       23466 grid points.
 Symmetry reduced    86 angular points to    86 for atom    6.
 IPart=  4 Atom   6 batch    2 overlaps   10 atoms,    99 shells and    10 DB shells.   NGrid=      1552
 Symmetry reduced   194 angular points to   194 for atom    6.
 Pruned (  99, 590) grid will be used in numerical quadrature.
 IPart= 10 Atom number   6 atomic number  1 has       23466 grid points.
 IPart= 10 Atom   6 batch    3 overlaps   10 atoms,   102 shells and    10 DB shells.   NGrid=      2416
 Symmetry reduced   302 angular points to   302 for atom    6.
 Pruned (  99, 590) grid will be used in numerical quadrature.
 IPart=  3 Atom number   6 atomic number  1 has       23466 grid points.
 IPart=  3 Atom   6 batch    4 overlaps   10 atoms,   103 shells and    10 DB shells.   NGrid=      1180
 Symmetry reduced   590 angular points to   590 for atom    6.
 Pruned (  99, 590) grid will be used in numerical quadrature.
 IPart=  7 Atom number   6 atomic number  1 has       23466 grid points.
 IPart=  7 Atom   6 batch    5 overlaps   10 atoms,   106 shells and    10 DB shells.   NGrid=      1180
 Symmetry reduced   590 angular points to   590 for atom    6.
 Pruned (  99, 590) grid will be used in numerical quadrature.
 Pruned (  99, 590) grid will be used in numerical quadrature.
 IPart=  1 Atom number   6 atomic number  1 has       23466 grid points.
 IPart=  5 Atom number   6 atomic number  1 has       23466 grid points.
 IPart=  1 Atom   6 batch    6 overlaps   10 atoms,   106 shells and    10 DB shells.   NGrid=      1180
 IPart=  5 Atom   6 batch    7 overlaps   10 atoms,   107 shells and    10 DB shells.   NGrid=      1180
 Symmetry reduced   590 angular points to   590 for atom    6.
 Symmetry reduced   590 angular points to   590 for atom    6.
 Pruned (  99, 590) grid will be used in numerical quadrature.
 IPart=  0 Atom number   6 atomic number  1 has       23466 grid points.
 IPart=  0 Atom   6 batch    8 overlaps   10 atoms,   108 shells and    10 DB shells.   NGrid=      1180
 Symmetry reduced   590 angular points to   590 for atom    6.
 Pruned (  99, 590) grid will be used in numerical quadrature.
 IPart= 11 Atom number   6 atomic number  1 has       23466 grid points.
 Pruned (  99, 590) grid will be used in numerical quadrature.
 IPart= 11 Atom   6 batch    9 overlaps   10 atoms,   109 shells and    10 DB shells.   NGrid=      1180
 IPart= 12 Atom number   6 atomic number  1 has       23466 grid points.
 Symmetry reduced   590 angular points to   590 for atom    6.
 IPart= 12 Atom   6 batch   10 overlaps   10 atoms,   109 shells and    10 DB shells.   NGrid=      1180
 Symmetry reduced   590 angular points to   590 for atom    6.
 Pruned (  99, 590) grid will be used in numerical quadrature.
 IPart=  6 Atom number   6 atomic number  1 has       23466 grid points.
 IPart=  6 Atom   6 batch   11 overlaps   10 atoms,   110 shells and    10 DB shells.   NGrid=      1180
 Symmetry reduced   590 angular points to   590 for atom    6.
 Pruned (  99, 590) grid will be used in numerical quadrature.
 IPart=  9 Atom number   6 atomic number  1 has       23466 grid points.
 IPart=  9 Atom   6 batch   12 overlaps   10 atoms,   110 shells and    10 DB shells.   NGrid=      1180
 Symmetry reduced   590 angular points to   590 for atom    6.
 Pruned (  99, 590) grid will be used in numerical quadrature.
 IPart= 15 Atom number   6 atomic number  1 has       23466 grid points.
 IPart= 15 Atom   6 batch   13 overlaps   10 atoms,   110 shells and    10 DB shells.   NGrid=       604
 Symmetry reduced   302 angular points to   302 for atom    6.
 Pruned (  99, 590) grid will be used in numerical quadrature.
 IPart= 14 Atom number   6 atomic number  1 has       23466 grid points.
 IPart= 14 Atom   6 batch   14 overlaps   10 atoms,   109 shells and    10 DB shells.   NGrid=       604
 Symmetry reduced   302 angular points to   302 for atom    6.
[...]
 3406 Fit       0.150428
 3407 Fit       0.150651
 3408 Fit       0.151801
 3409 Fit       0.154016
 3410 Fit       0.152814
 3411 Fit       0.149477
 3412 Fit       0.147142
 3413 Fit       0.145596
 3414 Fit       0.144683
 3415 Fit       0.144308
 3416 Fit       0.144432
 3417 Fit       0.145067
 3418 Fit       0.146282
 3419 Fit       0.148199
 3420 Fit       0.151004
 3421 Fit       0.144738
 3422 Fit       0.142870
 3423 Fit       0.141562
 3424 Fit       0.140692
 3425 Fit       0.140176
 3426 Fit       0.139963
 3427 Fit       0.140033
 3428 Fit       0.140393
 3429 Fit       0.141079
 3430 Fit       0.142155
 3431 Fit       0.143724
 3432 Fit       0.145934
 3433 Fit       0.140889
 3434 Fit       0.139400
 3435 Fit       0.138357
 3436 Fit       0.137649
 3437 Fit       0.137202
 3438 Fit       0.136968
 3439 Fit       0.136922
 3440 Fit       0.137060
 3441 Fit       0.137397
 3442 Fit       0.137967
 3443 Fit       0.138831
 3444 Fit       0.140080
 3445 Fit       0.137021
 3446 Fit       0.136183
 3447 Fit       0.135608
 3448 Fit       0.135231
 3449 Fit       0.135009
 3450 Fit       0.134918
 3451 Fit       0.134948
 3452 Fit       0.135102
 3453 Fit       0.135398
 3454 Fit       0.135867
 3455 Fit       0.136564
 3456 Fit       0.137568
 3457 Fit       0.135220
 3458 Fit       0.134643
 3459 Fit       0.134253
 3460 Fit       0.134002
 3461 Fit       0.133863
 3462 Fit       0.133818
 3463 Fit       0.133863
 3464 Fit       0.134002
 3465 Fit       0.134253
 3466 Fit       0.134643
 3467 Fit       0.135220
 3468 Fit       0.134524
 3469 Fit       0.134101
 3470 Fit       0.133826
 3471 Fit       0.133665
 3472 Fit       0.133599
 3473 Fit       0.133621
 3474 Fit       0.133732
 3475 Fit       0.133947
 3476 Fit       0.134291
 3477 Fit       0.134806
 3478 Fit       0.134758
 3479 Fit       0.134483
 3480 Fit       0.134340
 3481 Fit       0.134312
 3482 Fit       0.134397
 3483 Fit       0.134603
 3484 Fit       0.134954
 3485 Fit       0.136249
 3486 Fit       0.136120
 3487 Fit       0.136163
 3488 Fit       0.139250
 3489 Fit       0.143212
 3490 Fit       0.148841
 3491 Fit       0.152415
 3492 Fit       0.145795
 3493 Fit       0.141043
 3494 Fit       0.137801
 3495 Fit       0.135815
 3496 Fit       0.134846
 3497 Fit       0.134638
 3498 Fit       0.134920
 3499 Fit       0.135415
 3500 Fit       0.135872
 3501 Fit       0.136104
 3502 Fit       0.136024
 3503 Fit       0.135662
 3504 Fit       0.135158
 3505 Fit       0.134736
 3506 Fit       0.134663
 3507 Fit       0.135219
 3508 Fit       0.136666
 3509 Fit       0.139262
 3510 Fit       0.143402
 3511 Fit       0.149237
 3512 Fit       0.152898
 3513 Fit       0.146087
 3514 Fit       0.141139
 3515 Fit       0.137736
 3516 Fit       0.135602
 3517 Fit       0.134468
 3518 Fit       0.134046
 3519 Fit       0.134046
 3520 Fit       0.134199
 3521 Fit       0.134304
 3522 Fit       0.134266
 3523 Fit       0.134118
 3524 Fit       0.134011
 3525 Fit       0.134186
 3526 Fit       0.134927
 3527 Fit       0.136527
 3528 Fit       0.139410
 3529 Fit       0.143569
 3530 Fit       0.149244
 3531 Fit       0.156362
 3532 Fit       0.152646
 3533 Fit       0.146213
 3534 Fit       0.141307
 3535 Fit       0.137853
 3536 Fit       0.135641
 3537 Fit       0.134400
 3538 Fit       0.133828
 3539 Fit       0.133635
 3540 Fit       0.133597
 3541 Fit       0.133607
 3542 Fit       0.133700
 3543 Fit       0.134049
 3544 Fit       0.134918
 3545 Fit       0.136608
 3546 Fit       0.139606
 3547 Fit       0.143790
 3548 Fit       0.149130
 3549 Fit       0.154716
 3550 Fit       0.154716
 3551 Fit       0.149130
 3552 Fit       0.143790
 3553 Fit       0.139606
 3554 Fit       0.136750
 3555 Fit       0.135048
 3556 Fit       0.134188
 3557 Fit       0.133855
 3558 Fit       0.133855
 3559 Fit       0.134188
 3560 Fit       0.135048
 3561 Fit       0.136750
 3562 Fit       0.139786
 3563 Fit       0.144043
 3564 Fit       0.148419
 3565 Fit       0.150401
 3566 Fit       0.148419
 3567 Fit       0.144043
 3568 Fit       0.139786
 3569 Fit       0.136868
 3570 Fit       0.135357
 3571 Fit       0.134915
 3572 Fit       0.135357
 3573 Fit       0.136868
 3574 Fit       0.139910
 3575 Fit       0.143602
 3576 Fit       0.143602
 3577 Fit       0.139910
 3578 Fit       0.137254
 3579 Fit       0.137254
 3580 Fit       0.139954
 -----------------------------------------------------------------
 Leave Link  602 at Tue Sep 30 16:59:02 2025, MaxMem=  4294967296 cpu:               2.3 elap:               0.2
 (Enter /software/sse/easybuild/prefix/software/Gaussian/16.C.01-avx2-nsc1/g16/l701.exe)
 ... and contract with generalized density number  0.
 Compute integral first derivatives.
 Leave Link  701 at Tue Sep 30 16:59:02 2025, MaxMem=  4294967296 cpu:               2.5 elap:               0.2
 (Enter /software/sse/easybuild/prefix/software/Gaussian/16.C.01-avx2-nsc1/g16/l702.exe)
 L702 exits ... SP integral derivatives will be done elsewhere.
 Leave Link  702 at Tue Sep 30 16:59:03 2025, MaxMem=  4294967296 cpu:               0.3 elap:               0.0
 (Enter /software/sse/easybuild/prefix/software/Gaussian/16.C.01-avx2-nsc1/g16/l703.exe)
 Integral derivatives from FoFJK, PRISM(SPDF).
 Compute integral first derivatives, UseDBF=F ICtDFT=           0.
 Calling FoFJK, ICntrl=      2127 FMM=F ISym2X=1 I1Cent= 0 IOpClX= 0 NMat=1 NMatS=1 NMatT=0.
 FoFJK:  IHMeth= 1 ICntrl=    2127 DoSepK=F KAlg= 0 I1Cent=           0 FoldK=F
 IRaf=         0 NMat=       1 IRICut=       1 DoRegI=T DoRafI=F ISym2E= 1 IDoP0=0 IntGTp=1.
 FoFCou: FMM=F IPFlag=           0 FMFlag=      100000 FMFlg1=         800
         NFxFlg=           0 DoJE=F BraDBF=F KetDBF=F FulRan=T
         wScrn=  0.000000 ICntrl=      2127 IOpCl=  0 I1Cent=           0 NGrid=           0
         NMat0=    1 NMatS0=      1 NMatT0=    0 NMatD0=    1 NMtDS0=    0 NMtDT0=    0
 Petite list used in FoFCou.
 Leave Link  703 at Tue Sep 30 16:59:10 2025, MaxMem=  4294967296 cpu:             112.0 elap:               7.1
 (Enter /software/sse/easybuild/prefix/software/Gaussian/16.C.01-avx2-nsc1/g16/l716.exe)
 Dipole        =-2.71605145D-17-1.77635684D-15-1.19108796D-05
 ***** Axes restored to original set *****
 -------------------------------------------------------------------
 Center     Atomic                   Forces (Hartrees/Bohr)
 Number     Number              X              Y              Z
 -------------------------------------------------------------------
      1        6           0.000000000   -0.000000046    0.000000000
      2        7          -0.000000000   -0.000001142   -0.000000000
      3        7          -0.000004469   -0.000005472   -0.000000000
      4        7           0.000004469   -0.000005472   -0.000000000
      5        1           0.000001225    0.000003980   -0.000000000
      6        1           0.000001001    0.000000590   -0.000000000
      7        1           0.000002504    0.000001497    0.000000000
      8        1          -0.000002504    0.000001497    0.000000000
      9        1          -0.000001001    0.000000590   -0.000000000
     10        1          -0.000001225    0.000003980    0.000000000
 -------------------------------------------------------------------
 Cartesian Forces:  Max     0.000005472 RMS     0.000002277
 Leave Link  716 at Tue Sep 30 16:59:10 2025, MaxMem=  4294967296 cpu:               0.4 elap:               0.0
 (Enter /software/sse/easybuild/prefix/software/Gaussian/16.C.01-avx2-nsc1/g16/l103.exe)

 GradGradGradGradGradGradGradGradGradGradGradGradGradGradGradGradGradGrad
 Berny optimization.
 FormGI is forming the generalized inverse of G from B-inverse, IUseBI=4.
 Internal  Forces:  Max     0.000004006 RMS     0.000001460
 Search for a local minimum.
 Step number   1 out of a maximum of   43
 All quantities printed in internal units (Hartrees-Bohrs-Radians)
 RMS Force = .14601D-05 SwitMx=.10000D-02 MixMth= 2
 Mixed Optimization -- En-DIIS/RFO-DIIS
 Second derivative matrix not updated -- first step.
 ITU=  0
     Eigenvalues ---    0.02769   0.02769   0.02769   0.02769   0.02769
     Eigenvalues ---    0.02769   0.02769   0.16000   0.16000   0.16000
     Eigenvalues ---    0.16000   0.16000   0.16000   0.25000   0.25000
     Eigenvalues ---    0.49118   0.49118   0.49119   0.49119   0.49119
     Eigenvalues ---    0.49119   0.62281   0.62282   0.62282
 RFO step:  Lambda= 0.00000000D+00 EMin= 2.76854633D-02
 Linear search not attempted -- first point.
 Iteration  1 RMS(Cart)=  0.00000255 RMS(Int)=  0.00000000
 Iteration  2 RMS(Cart)=  0.00000000 RMS(Int)=  0.00000000
 ITry= 1 IFail=0 DXMaxC= 5.16D-06 DCOld= 1.00D+10 DXMaxT= 3.00D-01 DXLimC= 3.00D+00 Rises=F
 ClnCor:  largest displacement from symmetrization is 6.84D-13 for atom     8.
 Variable       Old X    -DE/DX   Delta X   Delta X   Delta X     New X
                                 (Linear)    (Quad)   (Total)
    R1        2.49179   0.00000   0.00000   0.00000   0.00000   2.49180
    R2        2.49179   0.00000   0.00000   0.00000   0.00000   2.49179
    R3        2.49179   0.00000   0.00000   0.00000   0.00000   2.49179
    R4        1.87465   0.00000   0.00000   0.00001   0.00001   1.87465
    R5        1.87465   0.00000   0.00000   0.00001   0.00001   1.87465
    R6        1.87466  -0.00000   0.00000  -0.00001  -0.00001   1.87465
    R7        1.87465  -0.00000   0.00000  -0.00000  -0.00000   1.87465
    R8        1.87465  -0.00000   0.00000  -0.00000  -0.00000   1.87465
    R9        1.87466  -0.00000   0.00000  -0.00001  -0.00001   1.87465
    A1        2.09440  -0.00000   0.00000  -0.00000  -0.00000   2.09439
    A2        2.09440  -0.00000   0.00000  -0.00000  -0.00000   2.09439
    A3        2.09439   0.00000   0.00000   0.00000   0.00000   2.09440
    A4        2.11716  -0.00000   0.00000  -0.00000  -0.00000   2.11716
    A5        2.11716  -0.00000   0.00000  -0.00000  -0.00000   2.11716
    A6        2.04886   0.00000   0.00000   0.00000   0.00000   2.04886
    A7        2.11717  -0.00000   0.00000  -0.00000  -0.00000   2.11716
    A8        2.11717  -0.00000   0.00000  -0.00000  -0.00000   2.11716
    A9        2.04885   0.00000   0.00000   0.00001   0.00001   2.04886
   A10        2.11717  -0.00000   0.00000  -0.00000  -0.00000   2.11716
   A11        2.11717  -0.00000   0.00000  -0.00000  -0.00000   2.11716
   A12        2.04885   0.00000   0.00000   0.00001   0.00001   2.04886
    D1        3.14159   0.00000   0.00000   0.00000   0.00000   3.14159
    D2       -0.00000   0.00000   0.00000   0.00000   0.00000   0.00000
    D3        0.00000  -0.00000   0.00000  -0.00000   0.00000   0.00000
    D4        3.14159   0.00000   0.00000   0.00000   0.00000   3.14159
    D5        3.14159  -0.00000   0.00000  -0.00000   0.00000   3.14159
    D6        0.00000   0.00000   0.00000   0.00000  -0.00000   0.00000
    D7       -0.00000   0.00000   0.00000   0.00000   0.00000   0.00000
    D8        3.14159   0.00000   0.00000   0.00000   0.00000   3.14159
    D9       -0.00000  -0.00000   0.00000  -0.00000   0.00000   0.00000
   D10        3.14159  -0.00000   0.00000  -0.00000   0.00000   3.14159
   D11        3.14159  -0.00000   0.00000  -0.00000   0.00000   3.14159
   D12        0.00000  -0.00000   0.00000  -0.00000   0.00000   0.00000
         Item               Value     Threshold  Converged?
 Maximum Force            0.000004     0.000015     YES
 RMS     Force            0.000001     0.000010     YES
 Maximum Displacement     0.000005     0.000060     YES
 RMS     Displacement     0.000003     0.000040     YES
 Predicted change in Energy=-7.999532D-11
 Optimization completed.
    -- Stationary point found.
                           ----------------------------
                           !   Optimized Parameters   !
                           ! (Angstroms and Degrees)  !
 --------------------------                            --------------------------
 ! Name  Definition              Value          Derivative Info.                !
 --------------------------------------------------------------------------------
 ! R1    R(1,2)                  1.3186         -DE/DX =    0.0                 !
 ! R2    R(1,3)                  1.3186         -DE/DX =    0.0                 !
 ! R3    R(1,4)                  1.3186         -DE/DX =    0.0                 !
 ! R4    R(2,7)                  0.992          -DE/DX =    0.0                 !
 ! R5    R(2,8)                  0.992          -DE/DX =    0.0                 !
 ! R6    R(3,5)                  0.992          -DE/DX =    0.0                 !
 ! R7    R(3,6)                  0.992          -DE/DX =    0.0                 !
 ! R8    R(4,9)                  0.992          -DE/DX =    0.0                 !
 ! R9    R(4,10)                 0.992          -DE/DX =    0.0                 !
 ! A1    A(2,1,3)              120.0            -DE/DX =    0.0                 !
 ! A2    A(2,1,4)              120.0            -DE/DX =    0.0                 !
 ! A3    A(3,1,4)              120.0            -DE/DX =    0.0                 !
 ! A4    A(1,2,7)              121.3045         -DE/DX =    0.0                 !
 ! A5    A(1,2,8)              121.3045         -DE/DX =    0.0                 !
 ! A6    A(7,2,8)              117.391          -DE/DX =    0.0                 !
 ! A7    A(1,3,5)              121.3049         -DE/DX =    0.0                 !
 ! A8    A(1,3,6)              121.3048         -DE/DX =    0.0                 !
 ! A9    A(5,3,6)              117.3904         -DE/DX =    0.0                 !
 ! A10   A(1,4,9)              121.3048         -DE/DX =    0.0                 !
 ! A11   A(1,4,10)             121.3049         -DE/DX =    0.0                 !
 ! A12   A(9,4,10)             117.3904         -DE/DX =    0.0                 !
 ! D1    D(3,1,2,7)            180.0            -DE/DX =    0.0                 !
 ! D2    D(3,1,2,8)              0.0            -DE/DX =    0.0                 !
 ! D3    D(4,1,2,7)              0.0            -DE/DX =    0.0                 !
 ! D4    D(4,1,2,8)            180.0            -DE/DX =    0.0                 !
 ! D5    D(2,1,3,5)            180.0            -DE/DX =    0.0                 !
 ! D6    D(2,1,3,6)              0.0            -DE/DX =    0.0                 !
 ! D7    D(4,1,3,5)              0.0            -DE/DX =    0.0                 !
 ! D8    D(4,1,3,6)            180.0            -DE/DX =    0.0                 !
 ! D9    D(2,1,4,9)              0.0            -DE/DX =    0.0                 !
 ! D10   D(2,1,4,10)           180.0            -DE/DX =    0.0                 !
 ! D11   D(3,1,4,9)            180.0            -DE/DX =    0.0                 !
 ! D12   D(3,1,4,10)             0.0            -DE/DX =    0.0                 !
 --------------------------------------------------------------------------------
 Lowest energy point so far.  Saving SCF results.
 Largest change from initial coordinates is atom    3       0.000 Angstoms.
 GradGradGradGradGradGradGradGradGradGradGradGradGradGradGradGradGradGrad

 Leave Link  103 at Tue Sep 30 16:59:10 2025, MaxMem=  4294967296 cpu:               2.3 elap:               0.2
 (Enter /software/sse/easybuild/prefix/software/Gaussian/16.C.01-avx2-nsc1/g16/l202.exe)
                          Input orientation:                          
 ---------------------------------------------------------------------
 Center     Atomic      Atomic             Coordinates (Angstroms)
 Number     Number       Type             X           Y           Z
 ---------------------------------------------------------------------
      1          6           0        0.000000    0.000000    0.000000
      2          7           0        0.000000    1.318600    0.000000
      3          7           0       -1.141940   -0.659300   -0.000000
      4          7           0        1.141940   -0.659300    0.000000
      5          1           0       -1.164530   -1.651070   -0.000000
      6          1           0       -2.012130   -0.182980   -0.000000
      7          1           0        0.847600    1.834040    0.000000
      8          1           0       -0.847600    1.834040    0.000000
      9          1           0        2.012130   -0.182980    0.000000
     10          1           0        1.164530   -1.651070    0.000000
 ---------------------------------------------------------------------
                    Distance matrix (angstroms):
                    1          2          3          4          5
     1  C    0.000000
     2  N    1.318600   0.000000
     3  N    1.318599   2.283882   0.000000
     4  N    1.318599   2.283882   2.283880   0.000000
     5  H    2.020436   3.189839   0.992027   2.510660   0.000000
     6  H    2.020433   2.510659   0.992024   3.189834   1.695203
     7  H    2.020428   0.992020   3.189830   2.510653   4.024259
     8  H    2.020428   0.992020   2.510653   3.189830   3.499491
     9  H    2.020433   2.510659   3.189834   0.992024   3.499494
    10  H    2.020436   3.189839   2.510660   0.992027   2.329060
                    6          7          8          9         10
     6  H    0.000000
     7  H    3.499489   0.000000
     8  H    2.329056   1.695200   0.000000
     9  H    4.024260   2.329056   3.499489   0.000000
    10  H    3.499494   3.499491   4.024259   1.695203   0.000000
 Stoichiometry    CH6N3(1+)
 Framework group  C2V[C2(CN),SGV(H6N2)]
 Deg. of freedom     9
 Full point group                 C2V     NOp   4
 RotChk:  IX=0 Diff= 1.46D-16
 Largest Abelian subgroup         C2V     NOp   4
 Largest concise Abelian subgroup C2      NOp   2
                         Standard orientation:                         
 ---------------------------------------------------------------------
 Center     Atomic      Atomic             Coordinates (Angstroms)
 Number     Number       Type             X           Y           Z
 ---------------------------------------------------------------------
      1          6           0       -0.000000    0.000000    0.000001
      2          7           0       -0.000000    0.000000    1.318601
      3          7           0        0.000000    1.141940   -0.659299
      4          7           0       -0.000000   -1.141940   -0.659299
      5          1           0        0.000000    1.164530   -1.651069
      6          1           0        0.000000    2.012130   -0.182979
      7          1           0        0.000000   -0.847600    1.834041
      8          1           0        0.000000    0.847600    1.834041
      9          1           0       -0.000000   -2.012130   -0.182979
     10          1           0       -0.000000   -1.164530   -1.651069
 ---------------------------------------------------------------------
 Rotational constants (GHZ):          10.3427649          10.3427528           5.1713794
 Leave Link  202 at Tue Sep 30 16:59:10 2025, MaxMem=  4294967296 cpu:               0.1 elap:               0.0
 (Enter /software/sse/easybuild/prefix/software/Gaussian/16.C.01-avx2-nsc1/g16/l9999.exe)

 Test job not archived.
 1\1\NSC-N1093\FOpt\RHF\Aug-CC-pVTZ\C1H6N3(1+)\X_DAVVA\30-Sep-2025\0\\#
 P HF/aug-cc-pvtz Opt=tight Pop=(MK,Hirshfeld) iop(6/33=2) iop(6/42=6) 
 maxdisk=128GB\\guanidinium\\1,1\C,0.,0.,0.\N,0.,1.3186,0.\N,-1.14194,-
 0.6593,0.\N,1.14194,-0.6593,0.\H,-1.16453,-1.65107,0.\H,-2.01213,-0.18
 298,0.\H,0.8476,1.83404,0.\H,-0.8476,1.83404,0.\H,2.01213,-0.18298,0.\
 H,1.16453,-1.65107,0.\\Version=ES64L-G16RevC.01\State=1-A1\HF=-204.617
 635\RMSD=6.786e-09\RMSF=2.277e-06\Dipole=0.,-0.0000119,0.\Quadrupole=3
 .9773698,3.9773461,-7.9547159,0.,0.,0.\PG=C02V [C2(C1N1),SGV(H6N2)]\\@


 IT'S WHAT YOU LEARN AFTER YOU KNOW IT ALL
 THAT COUNTS.
 Job cpu time:       0 days  0 hours  4 minutes 18.1 seconds.
 Elapsed time:       0 days  0 hours  0 minutes 17.7 seconds.
 File lengths (MBytes):  RWF=     43 Int=      0 D2E=      0 Chk=     12 Scr=      1
 Normal termination of Gaussian 16 at Tue Sep 30 16:59:10 2025.
