 Entering Gaussian System, Link 0=/software/sse/easybuild/prefix/software/Gaussian/16.C.01-avx2-nsc1/g16/g16.orig
 Input=ammonium.wrap
 Output=ammonium.log
 Initial command:
 /software/sse/easybuild/prefix/software/Gaussian/16.C.01-avx2-nsc1/g16/l1.exe "/scratch/local/Gau-1217147.inp" -scrdir="/scratch/local/"
 Entering Link 1 = /software/sse/easybuild/prefix/software/Gaussian/16.C.01-avx2-nsc1/g16/l1.exe PID=   1217148.
  
 Copyright (c) 1988-2019, Gaussian, Inc.  All Rights Reserved.
  
 This is part of the Gaussian(R) 16 program.  It is based on
 the Gaussian(R) 09 system (copyright 2009, Gaussian, Inc.),
 the Gaussian(R) 03 system (copyright 2003, Gaussian, Inc.),
 the Gaussian(R) 98 system (copyright 1998, Gaussian, Inc.),
 the Gaussian(R) 94 system (copyright 1995, Gaussian, Inc.),
 the Gaussian 92(TM) system (copyright 1992, Gaussian, Inc.),
 the Gaussian 90(TM) system (copyright 1990, Gaussian, Inc.),
 the Gaussian 88(TM) system (copyright 1988, Gaussian, Inc.),
 the Gaussian 86(TM) system (copyright 1986, Carnegie Mellon
 University), and the Gaussian 82(TM) system (copyright 1983,
 Carnegie Mellon University). Gaussian is a federally registered
 trademark of Gaussian, Inc.
  
 This software contains proprietary and confidential information,
 including trade secrets, belonging to Gaussian, Inc.
  
 This software is provided under written license and may be
 used, copied, transmitted, or stored only in accord with that
 written license.
  
 The following legend is applicable only to US Government
 contracts under FAR:
  
                    RESTRICTED RIGHTS LEGEND
  
 Use, reproduction and disclosure by the US Government is
 subject to restrictions as set forth in subparagraphs (a)
 and (c) of the Commercial Computer Software - Restricted
 Rights clause in FAR 52.227-19.
  
 Gaussian, Inc.
 340 Quinnipiac St., Bldg. 40, Wallingford CT 06492
  
  
 ---------------------------------------------------------------
 Warning -- This program may not be used in any manner that
 competes with the business of Gaussian, Inc. or will provide
 assistance to any competitor of Gaussian, Inc.  The licensee
 of this program is prohibited from giving any competitor of
 Gaussian, Inc. access to this program.  By using this program,
 the user acknowledges that Gaussian, Inc. is engaged in the
 business of creating and licensing software in the field of
 computational chemistry and represents and warrants to the
 licensee that it is not a competitor of Gaussian, Inc. and that
 it will not use this program in any manner prohibited above.
 ---------------------------------------------------------------
  

 Cite this work as:
 Gaussian 16, Revision C.01,
 M. J. Frisch, G. W. Trucks, H. B. Schlegel, G. E. Scuseria, 
 M. A. Robb, J. R. Cheeseman, G. Scalmani, V. Barone, 
 G. A. Petersson, H. Nakatsuji, X. Li, M. Caricato, A. V. Marenich, 
 J. Bloino, B. G. Janesko, R. Gomperts, B. Mennucci, H. P. Hratchian, 
 J. V. Ortiz, A. F. Izmaylov, J. L. Sonnenberg, D. Williams-Young, 
 F. Ding, F. Lipparini, F. Egidi, J. Goings, B. Peng, A. Petrone, 
 T. Henderson, D. Ranasinghe, V. G. Zakrzewski, J. Gao, N. Rega, 
 G. Zheng, W. Liang, M. Hada, M. Ehara, K. Toyota, R. Fukuda, 
 J. Hasegawa, M. Ishida, T. Nakajima, Y. Honda, O. Kitao, H. Nakai, 
 T. Vreven, K. Throssell, J. A. Montgomery, Jr., J. E. Peralta, 
 F. Ogliaro, M. J. Bearpark, J. J. Heyd, E. N. Brothers, K. N. Kudin, 
 V. N. Staroverov, T. A. Keith, R. Kobayashi, J. Normand, 
 K. Raghavachari, A. P. Rendell, J. C. Burant, S. S. Iyengar, 
 J. Tomasi, M. Cossi, J. M. Millam, M. Klene, C. Adamo, R. Cammi, 
 J. W. Ochterski, R. L. Martin, K. Morokuma, O. Farkas, 
 J. B. Foresman, and D. J. Fox, Gaussian, Inc., Wallingford CT, 2019.
 
 ******************************************
 Gaussian 16:  ES64L-G16RevC.01  3-Jul-2019
                30-Sep-2025 
 ******************************************
 %mem=12000MB
 %nprocshared=16
 Will use up to   16 processors via shared memory.
 %mem=32Gb
 %chk=ammonium.chk
 ----------------------------------------------------------------------
 #P MP2/aug-cc-pvtz Opt=tight density=MP2 Pop=(MK,Hirshfeld) iop(6/33=2
 ) iop(6/42=6) maxdisk=128GB
 ----------------------------------------------------------------------
 1/7=10,18=20,19=15,38=1/1,3;
 2/9=110,12=2,17=6,18=5,40=1/2;
 3/5=16,6=1,7=10,11=9,25=1,30=1,71=1/1,2,3;
 4//1;
 5/5=2,38=5/2;
 8/6=4,10=1/1;
 9/15=2,16=-3/6;
 10/5=1/2;
 6/7=2,8=2,9=2,10=2,15=8,20=1,22=2,33=2,42=6,79=1/1,2;
 7/12=2/1,2,3,16;
 1/7=10,18=20,19=15/3(2);
 2/9=110/2;
 99//99;
 2/9=110/2;
 3/5=16,6=1,7=10,11=9,25=1,30=1,71=1/1,2,3;
 4/5=5,16=3,69=1/1;
 5/5=2,38=5/2;
 8/6=4,10=1/1;
 9/15=2,16=-3/6;
 10/5=1/2;
 7/12=2/1,2,3,16;
 1/7=10,18=20,19=15/3(-8);
 2/9=110/2;
 6/7=2,8=2,9=2,10=2,15=8,20=1,22=2,33=2,42=6,79=1/1,2;
 99/9=10/99;
 Leave Link    1 at Tue Sep 30 16:58:49 2025, MaxMem=  4294967296 cpu:               1.5 elap:               0.1
 (Enter /software/sse/easybuild/prefix/software/Gaussian/16.C.01-avx2-nsc1/g16/l101.exe)
 --------
 ammonium
 --------
 Symbolic Z-matrix:
 Charge =  1 Multiplicity = 1
 H                    -0.58309   0.58309   0.58309 
 N                     0.        0.        0. 
 H                     0.58309  -0.58309   0.58309 
 H                    -0.58309  -0.58309  -0.58309 
 H                     0.58309   0.58309  -0.58309 
 
 ITRead=  0  0  0  0  0
 MicOpt= -1 -1 -1 -1 -1
 NAtoms=      5 NQM=        5 NQMF=       0 NMMI=      0 NMMIF=      0
                NMic=       0 NMicF=      0.
                    Isotopes and Nuclear Properties:
 (Nuclear quadrupole moments (NQMom) in fm**2, nuclear magnetic moments (NMagM)
  in nuclear magnetons)

  Atom         1           2           3           4           5
 IAtWgt=           1          14           1           1           1
 AtmWgt=   1.0078250  14.0030740   1.0078250   1.0078250   1.0078250
 NucSpn=           1           2           1           1           1
 AtZEff=  -0.0000000  -0.0000000  -0.0000000  -0.0000000  -0.0000000
 NQMom=    0.0000000   2.0440000   0.0000000   0.0000000   0.0000000
 NMagM=    2.7928460   0.4037610   2.7928460   2.7928460   2.7928460
 AtZNuc=   1.0000000   7.0000000   1.0000000   1.0000000   1.0000000
 Leave Link  101 at Tue Sep 30 16:58:50 2025, MaxMem=  4294967296 cpu:               5.1 elap:               0.3
 (Enter /software/sse/easybuild/prefix/software/Gaussian/16.C.01-avx2-nsc1/g16/l103.exe)

 GradGradGradGradGradGradGradGradGradGradGradGradGradGradGradGradGradGrad
 Berny optimization.
 Initialization pass.
                           ----------------------------
                           !    Initial Parameters    !
                           ! (Angstroms and Degrees)  !
 --------------------------                            --------------------------
 ! Name  Definition              Value          Derivative Info.                !
 --------------------------------------------------------------------------------
 ! R1    R(1,2)                  1.0099         estimate D2E/DX2                !
 ! R2    R(2,3)                  1.0099         estimate D2E/DX2                !
 ! R3    R(2,4)                  1.0099         estimate D2E/DX2                !
 ! R4    R(2,5)                  1.0099         estimate D2E/DX2                !
 ! A1    A(1,2,3)              109.4712         estimate D2E/DX2                !
 ! A2    A(1,2,4)              109.4712         estimate D2E/DX2                !
 ! A3    A(1,2,5)              109.4712         estimate D2E/DX2                !
 ! A4    A(3,2,4)              109.4712         estimate D2E/DX2                !
 ! A5    A(3,2,5)              109.4712         estimate D2E/DX2                !
 ! A6    A(4,2,5)              109.4712         estimate D2E/DX2                !
 ! D1    D(3,2,5,4)            120.0            estimate D2E/DX2                !
 --------------------------------------------------------------------------------
 Trust Radius=3.00D-01 FncErr=1.00D-07 GrdErr=1.00D-07 EigMax=2.50D+02 EigMin=1.00D-04
 Number of steps in this run=     21 maximum allowed number of steps=    100.
 GradGradGradGradGradGradGradGradGradGradGradGradGradGradGradGradGradGrad

 Leave Link  103 at Tue Sep 30 16:58:50 2025, MaxMem=  4294967296 cpu:               0.2 elap:               0.0
 (Enter /software/sse/easybuild/prefix/software/Gaussian/16.C.01-avx2-nsc1/g16/l202.exe)
                          Input orientation:                          
 ---------------------------------------------------------------------
 Center     Atomic      Atomic             Coordinates (Angstroms)
 Number     Number       Type             X           Y           Z
 ---------------------------------------------------------------------
      1          1           0       -0.583090    0.583090    0.583090
      2          7           0        0.000000    0.000000    0.000000
      3          1           0        0.583090   -0.583090    0.583090
      4          1           0       -0.583090   -0.583090   -0.583090
      5          1           0        0.583090    0.583090   -0.583090
 ---------------------------------------------------------------------
                    Distance matrix (angstroms):
                    1          2          3          4          5
     1  H    0.000000
     2  N    1.009942   0.000000
     3  H    1.649228   1.009942   0.000000
     4  H    1.649228   1.009942   1.649228   0.000000
     5  H    1.649228   1.009942   1.649228   1.649228   0.000000
 Stoichiometry    H4N(1+)
 Framework group  TD[O(N),4C3(H)]
 Deg. of freedom     1
 Full point group                 TD      NOp  24
 Largest Abelian subgroup         D2      NOp   4
 Largest concise Abelian subgroup D2      NOp   4
                         Standard orientation:                         
 ---------------------------------------------------------------------
 Center     Atomic      Atomic             Coordinates (Angstroms)
 Number     Number       Type             X           Y           Z
 ---------------------------------------------------------------------
      1          1           0        0.583090    0.583090    0.583090
      2          7           0        0.000000    0.000000    0.000000
      3          1           0       -0.583090   -0.583090    0.583090
      4          1           0       -0.583090    0.583090   -0.583090
      5          1           0        0.583090   -0.583090   -0.583090
 ---------------------------------------------------------------------
 Rotational constants (GHZ):         184.3617759         184.3617759         184.3617759
 Leave Link  202 at Tue Sep 30 16:58:50 2025, MaxMem=  4294967296 cpu:               0.2 elap:               0.0
 (Enter /software/sse/easybuild/prefix/software/Gaussian/16.C.01-avx2-nsc1/g16/l301.exe)
 Standard basis: Aug-CC-pVTZ (5D, 7F)
 Ernie: Thresh=  0.10000D-02 Tol=  0.10000D-05 Strict=F.
 Ernie:  3 primitive shells out of 74 were deleted.
 There are    41 symmetry adapted cartesian basis functions of A   symmetry.
 There are    38 symmetry adapted cartesian basis functions of B1  symmetry.
 There are    38 symmetry adapted cartesian basis functions of B2  symmetry.
 There are    38 symmetry adapted cartesian basis functions of B3  symmetry.
 There are    36 symmetry adapted basis functions of A   symmetry.
 There are    34 symmetry adapted basis functions of B1  symmetry.
 There are    34 symmetry adapted basis functions of B2  symmetry.
 There are    34 symmetry adapted basis functions of B3  symmetry.
   138 basis functions,   180 primitive gaussians,   155 cartesian basis functions
     5 alpha electrons        5 beta electrons
       nuclear repulsion energy        16.5962910147 Hartrees.
 IExCor=    0 DFT=F Ex=HF Corr=None ExCW=0 ScaHFX=  1.000000
 ScaDFX=  1.000000  1.000000  1.000000  1.000000 ScalE2=  1.000000  1.000000
 IRadAn=      5 IRanWt=     -1 IRanGd=            0 ICorTp=0 IEmpDi=  4
 NAtoms=    5 NActive=    5 NUniq=    2 SFac= 4.00D+00 NAtFMM=   60 NAOKFM=F Big=F
 Integral buffers will be    131072 words long.
 Raffenetti 1 integral format.
 Two-electron integral symmetry is turned on.
 Leave Link  301 at Tue Sep 30 16:58:51 2025, MaxMem=  4294967296 cpu:               0.9 elap:               0.1
 (Enter /software/sse/easybuild/prefix/software/Gaussian/16.C.01-avx2-nsc1/g16/l302.exe)
 NPDir=0 NMtPBC=     1 NCelOv=     1 NCel=       1 NClECP=     1 NCelD=      1
         NCelK=      1 NCelE2=     1 NClLst=     1 CellRange=     0.0.
 One-electron integrals computed using PRISM.
 One-electron integral symmetry used in STVInt
 NBasis=   138 RedAO= T EigKep=  9.56D-05  NBF=    36    34    34    34
 NBsUse=   138 1.00D-06 EigRej= -1.00D+00 NBFU=    36    34    34    34
 Leave Link  302 at Tue Sep 30 16:58:51 2025, MaxMem=  4294967296 cpu:               2.3 elap:               0.2
 (Enter /software/sse/easybuild/prefix/software/Gaussian/16.C.01-avx2-nsc1/g16/l303.exe)
 DipDrv:  MaxL=1.
 Leave Link  303 at Tue Sep 30 16:58:52 2025, MaxMem=  4294967296 cpu:               0.5 elap:               0.0
 (Enter /software/sse/easybuild/prefix/software/Gaussian/16.C.01-avx2-nsc1/g16/l401.exe)
 ExpMin= 2.53D-02 ExpMax= 1.14D+04 ExpMxC= 3.89D+02 IAcc=3 IRadAn=         5 AccDes= 0.00D+00
 Harris functional with IExCor=  205 and IRadAn=       5 diagonalized for initial guess.
 HarFok:  IExCor=  205 AccDes= 0.00D+00 IRadAn=         5 IDoV= 1 UseB2=F ITyADJ=14
 ICtDFT=  3500011 ScaDFX=  1.000000  1.000000  1.000000  1.000000
 FoFCou: FMM=F IPFlag=           0 FMFlag=      100000 FMFlg1=           0
         NFxFlg=           0 DoJE=T BraDBF=F KetDBF=T FulRan=T
         wScrn=  0.000000 ICntrl=       500 IOpCl=  0 I1Cent=   200000004 NGrid=           0
         NMat0=    1 NMatS0=      1 NMatT0=    0 NMatD0=    1 NMtDS0=    0 NMtDT0=    0
 Petite list used in FoFCou.
 Harris En= -56.7475022082783    
 JPrj=0 DoOrth=F DoCkMO=F.
 Initial guess orbital symmetries:
       Occupied  (A1) (A1) (T2) (T2) (T2)
       Virtual   (A1) (T2) (T2) (T2) (A1) (T2) (T2) (T2) (T2) (T2)
                 (T2) (E) (E) (A1) (T2) (T2) (T2) (T1) (T1) (T1)
                 (T2) (T2) (T2) (A1) (E) (E) (T2) (T2) (T2) (T2)
                 (T2) (T2) (A1) (T2) (T2) (T2) (T1) (T1) (T1) (A1)
                 (T2) (T2) (T2) (E) (E) (T1) (T1) (T1) (T2) (T2)
                 (T2) (E) (E) (A1) (T2) (T2) (T2) (E) (E) (T1)
                 (T1) (T1) (T2) (T2) (T2) (T2) (T2) (T2) (T2) (T2)
                 (T2) (A1) (T1) (T1) (T1) (E) (E) (A1) (T2) (T2)
                 (T2) (A1) (T2) (T2) (T2) (E) (E) (T1) (T1) (T1)
                 (T1) (T1) (T1) (T2) (T2) (T2) (T2) (T2) (T2) (E)
                 (E) (A1) (T2) (T2) (T2) (T2) (T2) (T2) (T1) (T1)
                 (T1) (T2) (T2) (T2) (A1) (E) (E) (T2) (T2) (T2)
                 (E) (E) (T1) (T1) (T1) (A1) (T2) (T2) (T2) (T2)
                 (T2) (T2) (A1)
 The electronic state of the initial guess is 1-A1.
 Leave Link  401 at Tue Sep 30 16:58:53 2025, MaxMem=  4294967296 cpu:               3.0 elap:               0.2
 (Enter /software/sse/easybuild/prefix/software/Gaussian/16.C.01-avx2-nsc1/g16/l502.exe)
 Keep R1 ints in memory in symmetry-blocked form, NReq=57528360.
 FoFCou: FMM=F IPFlag=           0 FMFlag=           0 FMFlg1=           0
         NFxFlg=           0 DoJE=F BraDBF=F KetDBF=F FulRan=T
         wScrn=  0.000000 ICntrl=       600 IOpCl=  0 I1Cent=           0 NGrid=           0
         NMat0=    1 NMatS0=   9591 NMatT0=    0 NMatD0=    1 NMtDS0=    0 NMtDT0=    0
 Petite list used in FoFCou.
 Closed shell SCF:
 Using DIIS extrapolation, IDIIS=  1040.
 NGot=  4294967296 LenX=  4283386271 LenY=  4283361805
 Requested convergence on RMS density matrix=1.00D-08 within 128 cycles.
 Requested convergence on MAX density matrix=1.00D-06.
 Requested convergence on             energy=1.00D-06.
 No special actions if energy rises.

 Cycle   1  Pass 1  IDiag  1:
 E= -56.5155181520974    
 DIIS: error= 5.06D-02 at cycle   1 NSaved=   1.
 NSaved= 1 IEnMin= 1 EnMin= -56.5155181520974     IErMin= 1 ErrMin= 5.06D-02
 ErrMax= 5.06D-02  0.00D+00 EMaxC= 1.00D-01 BMatC= 1.32D-01 BMatP= 1.32D-01
 IDIUse=3 WtCom= 4.94D-01 WtEn= 5.06D-01
 Coeff-Com:  0.100D+01
 Coeff-En:   0.100D+01
 Coeff:      0.100D+01
 Gap=     0.811 Goal=   None    Shift=    0.000
 GapD=    0.811 DampG=2.000 DampE=0.500 DampFc=1.0000 IDamp=-1.
 RMSDP=1.18D-03 MaxDP=4.76D-02              OVMax= 6.89D-02

 Cycle   2  Pass 1  IDiag  1:
 E= -56.5563392857779     Delta-E=       -0.040821133680 Rises=F Damp=F
 DIIS: error= 1.30D-02 at cycle   2 NSaved=   2.
 NSaved= 2 IEnMin= 2 EnMin= -56.5563392857779     IErMin= 2 ErrMin= 1.30D-02
 ErrMax= 1.30D-02  0.00D+00 EMaxC= 1.00D-01 BMatC= 1.25D-02 BMatP= 1.32D-01
 IDIUse=3 WtCom= 8.70D-01 WtEn= 1.30D-01
 Coeff-Com:  0.157D+00 0.843D+00
 Coeff-En:   0.000D+00 0.100D+01
 Coeff:      0.136D+00 0.864D+00
 Gap=     0.881 Goal=   None    Shift=    0.000
 RMSDP=4.34D-04 MaxDP=1.73D-02 DE=-4.08D-02 OVMax= 2.95D-02

 Cycle   3  Pass 1  IDiag  1:
 E= -56.5641314100595     Delta-E=       -0.007792124282 Rises=F Damp=F
 DIIS: error= 4.21D-03 at cycle   3 NSaved=   3.
 NSaved= 3 IEnMin= 3 EnMin= -56.5641314100595     IErMin= 3 ErrMin= 4.21D-03
 ErrMax= 4.21D-03  0.00D+00 EMaxC= 1.00D-01 BMatC= 9.91D-04 BMatP= 1.25D-02
 IDIUse=3 WtCom= 9.58D-01 WtEn= 4.21D-02
 Coeff-Com: -0.283D-01 0.182D+00 0.846D+00
 Coeff-En:   0.000D+00 0.000D+00 0.100D+01
 Coeff:     -0.271D-01 0.175D+00 0.852D+00
 Gap=     0.861 Goal=   None    Shift=    0.000
 RMSDP=8.51D-05 MaxDP=2.81D-03 DE=-7.79D-03 OVMax= 7.06D-03

 Cycle   4  Pass 1  IDiag  1:
 E= -56.5648406123331     Delta-E=       -0.000709202274 Rises=F Damp=F
 DIIS: error= 3.45D-04 at cycle   4 NSaved=   4.
 NSaved= 4 IEnMin= 4 EnMin= -56.5648406123331     IErMin= 4 ErrMin= 3.45D-04
 ErrMax= 3.45D-04  0.00D+00 EMaxC= 1.00D-01 BMatC= 4.72D-06 BMatP= 9.91D-04
 IDIUse=3 WtCom= 9.97D-01 WtEn= 3.45D-03
 Coeff-Com:  0.701D-02-0.642D-01-0.239D+00 0.130D+01
 Coeff-En:   0.000D+00 0.000D+00 0.000D+00 0.100D+01
 Coeff:      0.699D-02-0.640D-01-0.238D+00 0.129D+01
 Gap=     0.861 Goal=   None    Shift=    0.000
 RMSDP=1.21D-05 MaxDP=3.42D-04 DE=-7.09D-04 OVMax= 1.05D-03

 Cycle   5  Pass 1  IDiag  1:
 E= -56.5648488587913     Delta-E=       -0.000008246458 Rises=F Damp=F
 DIIS: error= 4.54D-05 at cycle   5 NSaved=   5.
 NSaved= 5 IEnMin= 5 EnMin= -56.5648488587913     IErMin= 5 ErrMin= 4.54D-05
 ErrMax= 4.54D-05  0.00D+00 EMaxC= 1.00D-01 BMatC= 1.09D-07 BMatP= 4.72D-06
 IDIUse=1 WtCom= 1.00D+00 WtEn= 0.00D+00
 Coeff-Com: -0.543D-03 0.616D-02 0.276D-01-0.241D+00 0.121D+01
 Coeff:     -0.543D-03 0.616D-02 0.276D-01-0.241D+00 0.121D+01
 Gap=     0.861 Goal=   None    Shift=    0.000
 RMSDP=1.38D-06 MaxDP=6.92D-05 DE=-8.25D-06 OVMax= 1.50D-04

 Cycle   6  Pass 1  IDiag  1:
 E= -56.5648490135459     Delta-E=       -0.000000154755 Rises=F Damp=F
 DIIS: error= 2.76D-06 at cycle   6 NSaved=   6.
 NSaved= 6 IEnMin= 6 EnMin= -56.5648490135459     IErMin= 6 ErrMin= 2.76D-06
 ErrMax= 2.76D-06  0.00D+00 EMaxC= 1.00D-01 BMatC= 4.18D-10 BMatP= 1.09D-07
 IDIUse=1 WtCom= 1.00D+00 WtEn= 0.00D+00
 Coeff-Com:  0.397D-04-0.626D-03-0.319D-02 0.352D-01-0.240D+00 0.121D+01
 Coeff:      0.397D-04-0.626D-03-0.319D-02 0.352D-01-0.240D+00 0.121D+01
 Gap=     0.861 Goal=   None    Shift=    0.000
 RMSDP=2.42D-07 MaxDP=9.14D-06 DE=-1.55D-07 OVMax= 1.21D-05

 Cycle   7  Pass 1  IDiag  1:
 E= -56.5648490143751     Delta-E=       -0.000000000829 Rises=F Damp=F
 DIIS: error= 1.38D-07 at cycle   7 NSaved=   7.
 NSaved= 7 IEnMin= 7 EnMin= -56.5648490143751     IErMin= 7 ErrMin= 1.38D-07
 ErrMax= 1.38D-07  0.00D+00 EMaxC= 1.00D-01 BMatC= 9.62D-13 BMatP= 4.18D-10
 IDIUse=1 WtCom= 1.00D+00 WtEn= 0.00D+00
 Coeff-Com: -0.144D-05 0.341D-04 0.215D-03-0.263D-02 0.197D-01-0.125D+00
 Coeff-Com:  0.111D+01
 Coeff:     -0.144D-05 0.341D-04 0.215D-03-0.263D-02 0.197D-01-0.125D+00
 Coeff:      0.111D+01
 Gap=     0.861 Goal=   None    Shift=    0.000
 RMSDP=1.53D-08 MaxDP=8.50D-07 DE=-8.29D-10 OVMax= 4.17D-07

 Cycle   8  Pass 1  IDiag  1:
 E= -56.5648490143764     Delta-E=       -0.000000000001 Rises=F Damp=F
 DIIS: error= 9.18D-09 at cycle   8 NSaved=   8.
 NSaved= 8 IEnMin= 8 EnMin= -56.5648490143764     IErMin= 8 ErrMin= 9.18D-09
 ErrMax= 9.18D-09  0.00D+00 EMaxC= 1.00D-01 BMatC= 4.92D-15 BMatP= 9.62D-13
 IDIUse=1 WtCom= 1.00D+00 WtEn= 0.00D+00
 Coeff-Com: -0.454D-07-0.604D-06-0.971D-05 0.132D-03-0.111D-02 0.829D-02
 Coeff-Com: -0.124D+00 0.112D+01
 Coeff:     -0.454D-07-0.604D-06-0.971D-05 0.132D-03-0.111D-02 0.829D-02
 Coeff:     -0.124D+00 0.112D+01
 Gap=     0.861 Goal=   None    Shift=    0.000
 RMSDP=1.25D-09 MaxDP=1.96D-08 DE=-1.31D-12 OVMax= 2.76D-08

 SCF Done:  E(RHF) =  -56.5648490144     A.U. after    8 cycles
            NFock=  8  Conv=0.13D-08     -V/T= 2.0005
 KE= 5.653913538326D+01 PE=-1.618275056969D+02 EE= 3.212723028457D+01
 Leave Link  502 at Tue Sep 30 16:58:54 2025, MaxMem=  4294967296 cpu:               9.6 elap:               0.6
 (Enter /software/sse/easybuild/prefix/software/Gaussian/16.C.01-avx2-nsc1/g16/l801.exe)
 ExpMin= 2.53D-02 ExpMax= 1.14D+04 ExpMxC= 3.89D+02 IAcc=3 IRadAn=         5 AccDes= 0.00D+00
 HarFok:  IExCor=  205 AccDes= 0.00D+00 IRadAn=         5 IDoV=-2 UseB2=F ITyADJ=14
 ICtDFT= 12500011 ScaDFX=  1.000000  1.000000  1.000000  1.000000
 Largest valence mixing into a core orbital is  1.34D-04
 Largest core mixing into a valence orbital is  1.96D-05
 Range of M.O.s used for correlation:     2   138
 NBasis=   138 NAE=     5 NBE=     5 NFC=     1 NFV=     0
 NROrb=    137 NOA=     4 NOB=     4 NVA=   133 NVB=   133

 **** Warning!!: The largest alpha MO coefficient is  0.48947384D+02

 Leave Link  801 at Tue Sep 30 16:58:54 2025, MaxMem=  4294967296 cpu:               0.7 elap:               0.1
 (Enter /software/sse/easybuild/prefix/software/Gaussian/16.C.01-avx2-nsc1/g16/l906.exe)
 Frozen-core derivative calculation, NFC=   1 NFV=   0.
 FulOut=F Deriv=T AODrv=T NAtomX=     5
   MMem=         382  MDisk=           4 MDiskD=           4
  W3Min=      106950 MinDsk=      375190 NBas6D=         155
 NBas2D=       12393    NTT=       12090    LW2=     3500000
    MDV=  4294731811 MDiskM=      138475 NBas2p=        4518
 Fully direct method using O(ONN) memory.
 IMap=   1   2   3   4   5
 JobTyp=1 Pass  1:  I=   2 to   5 NPSUse= 16 ParTrn=T ParDer=T DoDerP=T.
 Spin components of T(2) and E(2):
     alpha-alpha T2 =       0.6262539907D-02 E2=     -0.2403745458D-01
     alpha-beta  T2 =       0.4467147710D-01 E2=     -0.1827621758D+00
     beta-beta   T2 =       0.6262539907D-02 E2=     -0.2403745458D-01
 The integrals were generated   1 times.
 ANorm=    0.1028200640D+01
 E2 =    -0.2308370850D+00 EUMP2 =    -0.56795686099346D+02
 Leave Link  906 at Tue Sep 30 16:58:55 2025, MaxMem=  4294967296 cpu:              14.9 elap:               1.0
 (Enter /software/sse/easybuild/prefix/software/Gaussian/16.C.01-avx2-nsc1/g16/l1002.exe)
 Minotr:  Closed shell wavefunction.
          Computing MP2/KS-MP2 derivatives.
          Using Z-Vector for PSCF gradient.
          Skipping F1 and S1 gradient terms here.
          IDoAtm=11111
          Frozen-core window.
          Direct CPHF calculation.
          Differentiating once with respect to electric field.
                with respect to dipole field.
          Differentiating once with respect to nuclear coordinates.
          Using symmetry in CPHF.
          Requested convergence is 1.0D-10 RMS, and 1.0D-09 maximum.
          NewPWx=F KeepS1=T KeepF1=T KeepIn=T MapXYZ=F SortEE=F KeepMc=T.
 Keep R1 ints in memory in symmetry-blocked form, NReq=57529512.
 FoFCou: FMM=F IPFlag=           0 FMFlag=           0 FMFlg1=           0
         NFxFlg=           0 DoJE=F BraDBF=F KetDBF=F FulRan=T
         wScrn=  0.000000 ICntrl=       600 IOpCl=  0 I1Cent=           0 NGrid=           0
         NMat0=    1 NMatS0=   9591 NMatT0=    0 NMatD0=    1 NMtDS0=    0 NMtDT0=    0
 Petite list used in FoFCou.
          MDV=    4294967296 using IRadAn=       5.
          Solving linear equations separately, MaxMat=       0.
          There are     1 degrees of freedom in the 1st order CPHF.  IDoFFX=0 NUNeed=     1.
 LinEq1:  Iter=  0 NonCon=     1 RMS=1.98D-03 Max=1.42D-02 NDo=     1
 AX will form     1 AO Fock derivatives at one time.
 LinEq1:  Iter=  1 NonCon=     1 RMS=7.80D-04 Max=4.73D-03 NDo=     1
 LinEq1:  Iter=  2 NonCon=     1 RMS=1.35D-04 Max=8.16D-04 NDo=     1
 LinEq1:  Iter=  3 NonCon=     1 RMS=9.39D-06 Max=5.89D-05 NDo=     1
 LinEq1:  Iter=  4 NonCon=     1 RMS=5.61D-07 Max=3.54D-06 NDo=     1
 LinEq1:  Iter=  5 NonCon=     1 RMS=3.64D-08 Max=3.50D-07 NDo=     1
 LinEq1:  Iter=  6 NonCon=     1 RMS=2.33D-09 Max=2.50D-08 NDo=     1
 LinEq1:  Iter=  7 NonCon=     1 RMS=1.70D-10 Max=1.82D-09 NDo=     1
 LinEq1:  Iter=  8 NonCon=     0 RMS=7.93D-12 Max=7.86D-11 NDo=     1
 Linear equations converged to 1.000D-10 1.000D-09 after     8 iterations.
 End of Minotr F.D. properties file   721 does not exist.
 End of Minotr F.D. properties file   722 does not exist.
 End of Minotr F.D. properties file   788 does not exist.
 Leave Link 1002 at Tue Sep 30 16:58:56 2025, MaxMem=  4294967296 cpu:              11.4 elap:               0.8
 (Enter /software/sse/easybuild/prefix/software/Gaussian/16.C.01-avx2-nsc1/g16/l601.exe)
 Copying SCF densities to generalized density rwf, IOpCl= 0 IROHF=0.
 SCF density gives NOpUse= 24 NOpAll= 24.

 **********************************************************************

            Population analysis using the MP2 Density.

 **********************************************************************

 Orbital symmetries:
 BldTbl:  Degeneracy threshold= 1.00D-02
       Occupied  (A1) (A1) (T2) (T2) (T2)
       Virtual   (A1) (T2) (T2) (T2) (A1) (T2) (T2) (T2) (T2) (T2)
                 (T2) (E) (E) (A1) (T1) (T1) (T1) (T2) (T2) (T2)
                 (A1) (T2) (T2) (T2) (T2) (T2) (T2) (E) (E) (T2)
                 (T2) (T2) (A1) (T1) (T1) (T1) (T2) (T2) (T2) (A1)
                 (T2) (T2) (T2) (E) (E) (T1) (T1) (T1) (T2) (T2)
                 (T2) (E) (E) (T2) (T2) (T2) (A1) (E) (E) (T1)
                 (T1) (T1) (T2) (T2) (T2) (T2) (T2) (T2) (T2) (T2)
                 (T2) (A1) (T1) (T1) (T1) (E) (E) (A1) (T2) (T2)
                 (T2) (A1) (T2) (T2) (T2) (E) (E) (T1) (T1) (T1)
                 (T1) (T1) (T1) (T2) (T2) (T2) (T2) (T2) (T2) (E)
                 (E) (A1) (T2) (T2) (T2) (T2) (T2) (T2) (T1) (T1)
                 (T1) (T2) (T2) (T2) (A1) (E) (E) (T2) (T2) (T2)
                 (E) (E) (T1) (T1) (T1) (A1) (T2) (T2) (T2) (T2)
                 (T2) (T2) (A1)
 The electronic state is 1-A1.
 Alpha  occ. eigenvalues --  -15.93747  -1.55656  -1.00764  -1.00764  -1.00764
 Alpha virt. eigenvalues --   -0.14654  -0.09143  -0.09143  -0.09143  -0.02746
 Alpha virt. eigenvalues --   -0.01728  -0.01728  -0.01728   0.01116   0.01116
 Alpha virt. eigenvalues --    0.01116   0.02119   0.02119   0.14872   0.16627
 Alpha virt. eigenvalues --    0.16627   0.16627   0.18165   0.18165   0.18165
 Alpha virt. eigenvalues --    0.20286   0.22595   0.22595   0.22595   0.32668
 Alpha virt. eigenvalues --    0.32668   0.32668   0.33133   0.33133   0.48966
 Alpha virt. eigenvalues --    0.48966   0.48966   0.60008   0.66220   0.66220
 Alpha virt. eigenvalues --    0.66220   0.66909   0.66909   0.66909   0.73306
 Alpha virt. eigenvalues --    0.74615   0.74615   0.74615   0.82495   0.82495
 Alpha virt. eigenvalues --    0.82641   0.82641   0.82641   0.96215   0.96215
 Alpha virt. eigenvalues --    0.96215   0.99805   0.99805   1.09630   1.09630
 Alpha virt. eigenvalues --    1.09630   1.11651   1.14747   1.14747   1.45922
 Alpha virt. eigenvalues --    1.45922   1.45922   1.52067   1.52067   1.52067
 Alpha virt. eigenvalues --    1.60973   1.60973   1.60973   1.75705   1.75705
 Alpha virt. eigenvalues --    1.75705   1.85558   2.04391   2.04391   2.04391
 Alpha virt. eigenvalues --    2.11411   2.11411   2.13452   2.14174   2.14174
 Alpha virt. eigenvalues --    2.14174   3.24482   3.52797   3.52797   3.52797
 Alpha virt. eigenvalues --    3.59140   3.59140   3.84673   3.84673   3.84673
 Alpha virt. eigenvalues --    3.88917   3.88917   3.88917   4.02999   4.02999
 Alpha virt. eigenvalues --    4.02999   4.12338   4.12338   4.12338   4.16123
 Alpha virt. eigenvalues --    4.16123   4.27549   4.33253   4.33253   4.33253
 Alpha virt. eigenvalues --    4.55659   4.55659   4.55659   4.63190   4.63190
 Alpha virt. eigenvalues --    4.63190   4.68399   4.68399   4.68399   5.11830
 Alpha virt. eigenvalues --    5.29148   5.29148   5.48066   5.48066   5.48066
 Alpha virt. eigenvalues --    5.84484   5.84484   6.16514   6.16514   6.16514
 Alpha virt. eigenvalues --    6.40808   6.85289   6.85289   6.85289   7.43625
 Alpha virt. eigenvalues --    7.43625   7.43625  18.92328
          Condensed to atoms (all electrons):
               1          2          3          4          5
     1  H    0.458742   0.333989  -0.010906  -0.010906  -0.010906
     2  N    0.333989   5.623988   0.333989   0.333989   0.333989
     3  H   -0.010906   0.333989   0.458742  -0.010906  -0.010906
     4  H   -0.010906   0.333989  -0.010906   0.458742  -0.010906
     5  H   -0.010906   0.333989  -0.010906  -0.010906   0.458742
 Mulliken charges:
               1
     1  H    0.239986
     2  N    0.040055
     3  H    0.239986
     4  H    0.239986
     5  H    0.239986
 Sum of Mulliken charges =   1.00000
 Mulliken charges with hydrogens summed into heavy atoms:
               1
     2  N    1.000000
 DipInt: DoE/N= T F RetVal/Mat= T F Init=T NMatP=  1 IDeriv=0 Min/MaxMlt=  0  4
 Entering OneElI...
 OneElI was handed  4294903508 working-precision words.
 Multipole integrals L=0 to 4 MinM= 0 MaxM= 0.
 Requested accuracy = 0.1000D-12
 ShPair: Thresh= 1.00D-13 NBox=     0 BxSize= 0.00D+00 RnKept= 3.12D+00
         NSMCal=                 1275 NSMKep=                1275
 PrmmSu-InSpLW:  IPartL=    0 NPrtUS=    1 NPrtUL=    1 DoSpLW=F IThBeg=    0 IThEnd=    0 NThAct=    1.
 PrSmSu:  IncTry=   512 NBBP=           1275 NTPThr=   100 NPartT=    1 Incr=          12 LDynOK=F GPUOK=F.
 PrsmSu:  NPrtUS=   1 ThrOK=F IAlg=2 LenDen=           0 ISkipM=0 DoSpLW=F IThBeg=    0 IThEnd=    0.
 Prism:   IPart=     0 DynPar=F LinDyn=F Incr=          12.
 PRISM was handed  4294819897 working-precision words and  1275 shell-pairs
 IPart=  0 NShTot=        1275 NBatch=          36 AvBLen=        35.4
 PrsmSu-ThDecC:  IPartSL=    0    0 NPrtUSL=    1    1 IThBeg=    0 IThEnd=    0 CPU=   -1 GPU=   -1 NThAct=    1.
 PrSmSu:  NxtVal=             13.
 Electronic moments (au):
        -10.00000000         -0.00000000          0.00000000          0.00000000
         -8.10507597         -8.10507597         -8.10507597          0.00000000
         -0.00000000         -0.00000000         -0.00000000          0.00000000
          0.00000000         -0.00000000          0.00000000          0.00000000
         -0.00000000         -0.00000000          0.00000000         -2.86882381
        -25.40487221        -25.40487221        -25.40487221          0.00000000
         -0.00000000          0.00000000         -0.00000000         -0.00000000
          0.00000000        -10.16223614        -10.16223614        -10.16223614
         -0.00000000         -0.00000000          0.00000000
 Electronic spatial extent (au):  <R**2>=             24.3152
 DipInt: DoE/N= F T RetVal/Mat= T F Init=T NMatP=  1 IDeriv=0 Min/MaxMlt=  0  4
 Nuclear    moments (au):
         11.00000000          0.00000000          0.00000000          0.00000000
          4.85656172          4.85656172          4.85656172         -0.00000000
          0.00000000          0.00000000          0.00000000         -0.00000000
          0.00000000          0.00000000         -0.00000000          0.00000000
         -0.00000000          0.00000000         -0.00000000          5.35135020
          5.89654793          5.89654793          5.89654793          0.00000000
         -0.00000000         -0.00000000          0.00000000          0.00000000
         -0.00000000          5.89654793          5.89654793          5.89654793
          0.00000000          0.00000000          0.00000000
 Total      moments (au):
          1.00000000          0.00000000          0.00000000          0.00000000
         -3.24851426         -3.24851426         -3.24851426         -0.00000000
         -0.00000000          0.00000000         -0.00000000          0.00000000
          0.00000000          0.00000000         -0.00000000          0.00000000
         -0.00000000          0.00000000          0.00000000          2.48252638
        -19.50832429        -19.50832429        -19.50832429          0.00000000
         -0.00000000          0.00000000          0.00000000         -0.00000000
          0.00000000         -4.26568821         -4.26568821         -4.26568821
          0.00000000         -0.00000000          0.00000000
 Traceless Quadrup. (au):
         -0.00000000         -0.00000000          0.00000000         -0.00000000
         -0.00000000          0.00000000
 Charge=              1.0000 electrons
 Dipole moment (field-independent basis, Debye):
    X=              0.0000    Y=              0.0000    Z=              0.0000  Tot=              0.0000
 Quadrupole moment (field-independent basis, Debye-Ang):
   XX=             -4.3694   YY=             -4.3694   ZZ=             -4.3694
   XY=             -0.0000   XZ=             -0.0000   YZ=              0.0000
 Traceless Quadrupole moment (field-independent basis, Debye-Ang):
   XX=             -0.0000   YY=             -0.0000   ZZ=              0.0000
   XY=             -0.0000   XZ=             -0.0000   YZ=              0.0000
 Octapole moment (field-independent basis, Debye-Ang**2):
  XXX=             -0.0000  YYY=              0.0000  ZZZ=              0.0000  XYY=              0.0000
  XXY=             -0.0000  XXZ=              0.0000  XZZ=             -0.0000  YZZ=              0.0000
  YYZ=              0.0000  XYZ=              1.7670
 Hexadecapole moment (field-independent basis, Debye-Ang**3):
 XXXX=             -7.3478 YYYY=             -7.3478 ZZZZ=             -7.3478 XXXY=              0.0000
 XXXZ=             -0.0000 YYYX=              0.0000 YYYZ=              0.0000 ZZZX=             -0.0000
 ZZZY=              0.0000 XXYY=             -1.6067 XXZZ=             -1.6067 YYZZ=             -1.6067
 XXYZ=              0.0000 YYXZ=             -0.0000 ZZXY=              0.0000
 N-N= 1.659629101466D+01 E-N=-1.619952131406D+02  KE= 5.681751613559D+01
 Symmetry A    KE= 4.802378570169D+01
 Symmetry B1   KE= 2.931243477967D+00
 Symmetry B2   KE= 2.931243477967D+00
 Symmetry B3   KE= 2.931243477968D+00
 SetAtRh:  ITypeU=  23 NETotI=      -1 ICharg=  0 NETot=      11.
 StAtR1:  I=    1 I1=    1 IA=  1 C=   1.0 OKShel=T
                                                  S
                                                  1
 StAtR1:  I=    2 I1=    2 IA=  7 C=   7.0 OKShel=TTT
                                                  SSP
                                                  223
 StAtR1:  I=    3 I1=    3 IA=  1 C=   1.0 OKShel=T
                                                  S
                                                  1
 StAtR1:  I=    4 I1=    4 IA=  1 C=   1.0 OKShel=T
                                                  S
                                                  1
 StAtR1:  I=    5 I1=    5 IA=  1 C=   1.0 OKShel=T
                                                  S
                                                  1
          I=    1 IA=  1 I1=    1 NAtG=20 NE=   1.000 C=   1.000 Err= 2.80D-12
          I=    2 IA=  7 I1=    2 NAtG=22 NE=   7.000 C=   7.000 Err= 6.08D-13
          I=    3 IA=  1 I1=    3 NAtG=20 NE=   1.000 C=   1.000 Err= 2.80D-12
          I=    4 IA=  1 I1=    4 NAtG=20 NE=   1.000 C=   1.000 Err= 2.80D-12
          I=    5 IA=  1 I1=    5 NAtG=20 NE=   1.000 C=   1.000 Err= 2.80D-12
 Pruned (  99, 590) grid will be used in numerical quadrature.
 IPart=  0 IRanGd=          0 ScrnBf=T ScrnGd=T RCrit=4.00D+00 DoMicB=T.
 CutRad = 1000.00    CtRdIn =    0.00    XCrit =  15.00   ICut = 0
 Pruned (  99, 590) grid will be used in numerical quadrature.
 IPart=  0 Atom number   1 atomic number  1 has       23164 grid points.
 Pruned (  99, 590) grid will be used in numerical quadrature.
 IPart=  0 Atom   1 batch    1 overlaps    5 atoms,    50 shells and     5 DB shells.   NGrid=      2838
 IPart=  1 IRanGd=          0 ScrnBf=T ScrnGd=T RCrit=4.00D+00 DoMicB=T.
 CutRad = 1000.00    CtRdIn =    0.00    XCrit =  15.00   ICut = 0
 Pruned (  99, 590) grid will be used in numerical quadrature.
 Pruned (  99, 590) grid will be used in numerical quadrature.
 Symmetry reduced    86 angular points to    86 for atom    1.
 Pruned (  99, 590) grid will be used in numerical quadrature.
 Pruned (  99, 590) grid will be used in numerical quadrature.
 Pruned (  99, 590) grid will be used in numerical quadrature.
 IPart=  1 Atom number   1 atomic number  1 has       23164 grid points.
 IPart= 14 IRanGd=          0 ScrnBf=T ScrnGd=T RCrit=4.00D+00 DoMicB=T.
 IPart= 15 IRanGd=          0 ScrnBf=T ScrnGd=T RCrit=4.00D+00 DoMicB=T.
 CutRad = 1000.00    CtRdIn =    0.00    XCrit =  15.00   ICut = 0
 CutRad = 1000.00    CtRdIn =    0.00    XCrit =  15.00   ICut = 0
 Pruned (  99, 590) grid will be used in numerical quadrature.
 IPart=  1 Atom   1 batch    2 overlaps    5 atoms,    50 shells and     5 DB shells.   NGrid=      1552
 Pruned (  99, 590) grid will be used in numerical quadrature.
 IPart=  8 IRanGd=          0 ScrnBf=T ScrnGd=T RCrit=4.00D+00 DoMicB=T.
 CutRad = 1000.00    CtRdIn =    0.00    XCrit =  15.00   ICut = 0
 Pruned (  99, 590) grid will be used in numerical quadrature.
 Pruned (  99, 590) grid will be used in numerical quadrature.
 IPart= 15 Atom number   1 atomic number  1 has       23164 grid points.
 IPart= 14 Atom number   1 atomic number  1 has       23164 grid points.
 Pruned (  99, 590) grid will be used in numerical quadrature.
 IPart= 15 Atom   1 batch    3 overlaps    5 atoms,    50 shells and     5 DB shells.   NGrid=      2416
 Pruned (  99, 590) grid will be used in numerical quadrature.
 IPart=  9 IRanGd=          0 ScrnBf=T ScrnGd=T RCrit=4.00D+00 DoMicB=T.
 Symmetry reduced   302 angular points to   302 for atom    1.
 IPart=  8 Atom number   1 atomic number  1 has       23164 grid points.
 Pruned (  99, 590) grid will be used in numerical quadrature.
 Pruned (  99, 590) grid will be used in numerical quadrature.
 CutRad = 1000.00    CtRdIn =    0.00    XCrit =  15.00   ICut = 0
 IPart=  8 Atom   1 batch    5 overlaps    5 atoms,    50 shells and     5 DB shells.   NGrid=      1180
 IPart= 11 IRanGd=          0 ScrnBf=T ScrnGd=T RCrit=4.00D+00 DoMicB=T.
 Pruned (  99, 590) grid will be used in numerical quadrature.
 IPart= 14 Atom   1 batch    4 overlaps    5 atoms,    50 shells and     5 DB shells.   NGrid=      1180
 Symmetry reduced   590 angular points to   590 for atom    1.
 IPart=  7 IRanGd=          0 ScrnBf=T ScrnGd=T RCrit=4.00D+00 DoMicB=T.
 IPart= 10 IRanGd=          0 ScrnBf=T ScrnGd=T RCrit=4.00D+00 DoMicB=T.
 CutRad = 1000.00    CtRdIn =    0.00    XCrit =  15.00   ICut = 0
 Pruned (  99, 590) grid will be used in numerical quadrature.
 IPart=  3 IRanGd=          0 ScrnBf=T ScrnGd=T RCrit=4.00D+00 DoMicB=T.
 CutRad = 1000.00    CtRdIn =    0.00    XCrit =  15.00   ICut = 0
 IPart= 12 IRanGd=          0 ScrnBf=T ScrnGd=T RCrit=4.00D+00 DoMicB=T.
 Symmetry reduced   590 angular points to   590 for atom    1.
 Pruned (  99, 590) grid will be used in numerical quadrature.
 Pruned (  99, 590) grid will be used in numerical quadrature.
 Pruned (  99, 590) grid will be used in numerical quadrature.
 Symmetry reduced   194 angular points to   194 for atom    1.
 CutRad = 1000.00    CtRdIn =    0.00    XCrit =  15.00   ICut = 0
 IPart=  5 IRanGd=          0 ScrnBf=T ScrnGd=T RCrit=4.00D+00 DoMicB=T.
 IPart=  6 IRanGd=          0 ScrnBf=T ScrnGd=T RCrit=4.00D+00 DoMicB=T.
 CutRad = 1000.00    CtRdIn =    0.00    XCrit =  15.00   ICut = 0
 CutRad = 1000.00    CtRdIn =    0.00    XCrit =  15.00   ICut = 0
 IPart=  4 IRanGd=          0 ScrnBf=T ScrnGd=T RCrit=4.00D+00 DoMicB=T.
 IPart= 13 IRanGd=          0 ScrnBf=T ScrnGd=T RCrit=4.00D+00 DoMicB=T.
 CutRad = 1000.00    CtRdIn =    0.00    XCrit =  15.00   ICut = 0
 CutRad = 1000.00    CtRdIn =    0.00    XCrit =  15.00   ICut = 0
 Pruned (  99, 590) grid will be used in numerical quadrature.
 IPart=  3 Atom number   1 atomic number  1 has       23164 grid points.
 Pruned (  99, 590) grid will be used in numerical quadrature.
 IPart=  3 Atom   1 batch    8 overlaps    5 atoms,    50 shells and     5 DB shells.   NGrid=      1180
 IPart= 11 Atom number   1 atomic number  1 has       23164 grid points.
 CutRad = 1000.00    CtRdIn =    0.00    XCrit =  15.00   ICut = 0
 Pruned (  99, 590) grid will be used in numerical quadrature.
 IPart= 11 Atom   1 batch   10 overlaps    5 atoms,    50 shells and     5 DB shells.   NGrid=      1180
 Pruned (  99, 590) grid will be used in numerical quadrature.
 Symmetry reduced   590 angular points to   590 for atom    1.
 Pruned (  99, 590) grid will be used in numerical quadrature.
 IPart=  4 Atom number   1 atomic number  1 has       23164 grid points.
 IPart= 12 Atom number   1 atomic number  1 has       23164 grid points.
 Pruned (  99, 590) grid will be used in numerical quadrature.
 IPart= 12 Atom   1 batch    9 overlaps    5 atoms,    50 shells and     5 DB shells.   NGrid=      1180
 Pruned (  99, 590) grid will be used in numerical quadrature.
 IPart= 13 Atom number   1 atomic number  1 has       23164 grid points.
 Pruned (  99, 590) grid will be used in numerical quadrature.
 IPart= 13 Atom   1 batch   14 overlaps    5 atoms,    49 shells and     5 DB shells.   NGrid=       604
 IPart=  2 IRanGd=          0 ScrnBf=T ScrnGd=T RCrit=4.00D+00 DoMicB=T.
 Symmetry reduced   590 angular points to   590 for atom    1.
 IPart=  9 Atom number   1 atomic number  1 has       23164 grid points.
 CutRad = 1000.00    CtRdIn =    0.00    XCrit =  15.00   ICut = 0
 IPart=  9 Atom   1 batch    6 overlaps    5 atoms,    50 shells and     5 DB shells.   NGrid=      1180
 IPart=  4 Atom   1 batch   12 overlaps    5 atoms,    50 shells and     5 DB shells.   NGrid=      1180
 IPart= 10 Atom number   1 atomic number  1 has       23164 grid points.
 Symmetry reduced   590 angular points to   590 for atom    1.
 Symmetry reduced   590 angular points to   590 for atom    1.
 Symmetry reduced   302 angular points to   302 for atom    1.
 IPart= 10 Atom   1 batch    7 overlaps    5 atoms,    50 shells and     5 DB shells.   NGrid=      1180
 CutRad = 1000.00    CtRdIn =    0.00    XCrit =  15.00   ICut = 0
 Pruned (  99, 590) grid will be used in numerical quadrature.
 Symmetry reduced   590 angular points to   590 for atom    1.
 Symmetry reduced   590 angular points to   590 for atom    1.
 IPart=  7 Atom number   1 atomic number  1 has       23164 grid points.
 IPart=  7 Atom   1 batch   15 overlaps    5 atoms,    46 shells and     5 DB shells.   NGrid=       604
 IPart=  5 Atom number   1 atomic number  1 has       23164 grid points.
 Symmetry reduced   302 angular points to   302 for atom    1.
 IPart=  5 Atom   1 batch   11 overlaps    5 atoms,    50 shells and     5 DB shells.   NGrid=      1180
 Pruned (  99, 590) grid will be used in numerical quadrature.
 Pruned (  99, 590) grid will be used in numerical quadrature.
 IPart=  2 Atom number   1 atomic number  1 has       23164 grid points.
 IPart=  6 Atom number   1 atomic number  1 has       23164 grid points.
 IPart=  2 Atom   1 batch   16 overlaps    5 atoms,    43 shells and     5 DB shells.   NGrid=       604
 IPart=  6 Atom   1 batch   13 overlaps    5 atoms,    50 shells and     5 DB shells.   NGrid=       604
 Symmetry reduced   302 angular points to   302 for atom    1.
 Symmetry reduced   302 angular points to   302 for atom    1.
 Symmetry reduced   590 angular points to   590 for atom    1.
 IPart=  2 Atom   1 batch   17 overlaps    5 atoms,    33 shells and     5 DB shells.   NGrid=       604
 IPart=  7 Atom   1 batch   18 overlaps    5 atoms,    28 shells and     5 DB shells.   NGrid=       604
 IPart= 13 Atom   1 batch   19 overlaps    5 atoms,    16 shells and     4 DB shells.   NGrid=       604
 IPart=  6 Atom   1 batch   20 overlaps    5 atoms,    12 shells and     0 DB shells.   NGrid=       604
 IPart= 13 Atom   1 batch   21 overlaps    5 atoms,     5 shells and     0 DB shells.   NGrid=       604
 IPart=  6 Atom   1 batch   22 overlaps    5 atoms,     3 shells and     0 DB shells.   NGrid=       302
 Pruned (  99, 590) grid will be used in numerical quadrature.
 IPart=  7 Atom number   2 atomic number  7 has       23416 grid points.
 IPart=  7 Atom   2 batch    1 overlaps    5 atoms,    50 shells and     5 DB shells.   NGrid=      2408
 Symmetry reduced    86 angular points to    86 for atom    2.
 Pruned (  99, 590) grid will be used in numerical quadrature.
 Pruned (  99, 590) grid will be used in numerical quadrature.
 IPart=  2 Atom number   2 atomic number  7 has       23416 grid points.
 IPart=  6 Atom number   2 atomic number  7 has       23416 grid points.
 IPart=  2 Atom   2 batch    2 overlaps    5 atoms,    50 shells and     5 DB shells.   NGrid=      2522
 IPart=  6 Atom   2 batch    3 overlaps    5 atoms,    50 shells and     5 DB shells.   NGrid=      2114
 Symmetry reduced   194 angular points to   194 for atom    2.
 Symmetry reduced   302 angular points to   302 for atom    2.
 Pruned (  99, 590) grid will be used in numerical quadrature.
 IPart= 13 Atom number   2 atomic number  7 has       23416 grid points.
 IPart= 13 Atom   2 batch    4 overlaps    5 atoms,    50 shells and     5 DB shells.   NGrid=      1180
 Symmetry reduced   590 angular points to   590 for atom    2.
 Pruned (  99, 590) grid will be used in numerical quadrature.
 IPart=  8 Atom number   2 atomic number  7 has       23416 grid points.
 IPart=  8 Atom   2 batch    5 overlaps    5 atoms,    50 shells and     5 DB shells.   NGrid=      1180
 Pruned (  99, 590) grid will be used in numerical quadrature.
 Symmetry reduced   590 angular points to   590 for atom    2.
 IPart= 14 Atom number   2 atomic number  7 has       23416 grid points.
 IPart= 14 Atom   2 batch    6 overlaps    5 atoms,    50 shells and     5 DB shells.   NGrid=      1180
 Symmetry reduced   590 angular points to   590 for atom    2.
 Pruned (  99, 590) grid will be used in numerical quadrature.
 IPart=  5 Atom number   2 atomic number  7 has       23416 grid points.
 IPart=  5 Atom   2 batch    7 overlaps    5 atoms,    50 shells and     5 DB shells.   NGrid=      1180
 Pruned (  99, 590) grid will be used in numerical quadrature.
 Symmetry reduced   590 angular points to   590 for atom    2.
 Pruned (  99, 590) grid will be used in numerical quadrature.
 IPart=  4 Atom number   2 atomic number  7 has       23416 grid points.
 IPart= 12 Atom number   2 atomic number  7 has       23416 grid points.
 IPart=  4 Atom   2 batch    8 overlaps    5 atoms,    50 shells and     5 DB shells.   NGrid=      1180
 IPart= 12 Atom   2 batch    9 overlaps    5 atoms,    50 shells and     5 DB shells.   NGrid=      1180
 Symmetry reduced   590 angular points to   590 for atom    2.
 Symmetry reduced   590 angular points to   590 for atom    2.
 Pruned (  99, 590) grid will be used in numerical quadrature.
 IPart= 11 Atom number   2 atomic number  7 has       23416 grid points.
 IPart= 11 Atom   2 batch   10 overlaps    5 atoms,    50 shells and     5 DB shells.   NGrid=      1180
 Symmetry reduced   590 angular points to   590 for atom    2.
 Pruned (  99, 590) grid will be used in numerical quadrature.
 Pruned (  99, 590) grid will be used in numerical quadrature.
 IPart= 10 Atom number   2 atomic number  7 has       23416 grid points.
 IPart=  9 Atom number   2 atomic number  7 has       23416 grid points.
 IPart= 10 Atom   2 batch   11 overlaps    5 atoms,    50 shells and     5 DB shells.   NGrid=      1180
 IPart=  9 Atom   2 batch   12 overlaps    5 atoms,    49 shells and     5 DB shells.   NGrid=       590
 Symmetry reduced   590 angular points to   590 for atom    2.
 Symmetry reduced   590 angular points to   590 for atom    2.
 Pruned (  99, 590) grid will be used in numerical quadrature.
 IPart=  3 Atom number   2 atomic number  7 has       23416 grid points.
 IPart=  3 Atom   2 batch   13 overlaps    5 atoms,    49 shells and     5 DB shells.   NGrid=       604
 Symmetry reduced   302 angular points to   302 for atom    2.
 Pruned (  99, 590) grid will be used in numerical quadrature.
 IPart=  1 Atom number   2 atomic number  7 has       23416 grid points.
 IPart=  1 Atom   2 batch   14 overlaps    5 atoms,    49 shells and     5 DB shells.   NGrid=       604
 Symmetry reduced   302 angular points to   302 for atom    2.
 IPart=  9 Atom   2 batch   15 overlaps    5 atoms,    47 shells and     5 DB shells.   NGrid=       604
 Symmetry reduced   302 angular points to   302 for atom    2.
 IPart=  3 Atom   2 batch   16 overlaps    5 atoms,    45 shells and     5 DB shells.   NGrid=       604
 IPart=  1 Atom   2 batch   17 overlaps    5 atoms,    37 shells and     5 DB shells.   NGrid=       604
 IPart= 13 Atom   2 batch   18 overlaps    5 atoms,    30 shells and     5 DB shells.   NGrid=       604
 Symmetry reduced   302 angular points to   302 for atom    2.
 Pruned (  99, 590) grid will be used in numerical quadrature.
 IPart= 15 Atom number   2 atomic number  7 has       23416 grid points.
 IPart= 15 Atom   2 batch   19 overlaps    5 atoms,    21 shells and     5 DB shells.   NGrid=       604
 Symmetry reduced   302 angular points to   302 for atom    2.
 IPart=  8 Atom   2 batch   20 overlaps    5 atoms,    14 shells and     4 DB shells.   NGrid=       604
 IPart= 14 Atom   2 batch   21 overlaps    5 atoms,     6 shells and     0 DB shells.   NGrid=       604
 IPart= 12 Atom   2 batch   22 overlaps    5 atoms,     4 shells and     0 DB shells.   NGrid=       604
 Symmetry reduced   302 angular points to   302 for atom    2.
 Symmetry reduced   302 angular points to   302 for atom    2.
 Symmetry reduced   302 angular points to   302 for atom    2.
 IPart= 10 Atom   2 batch   23 overlaps    5 atoms,     0 shells and     0 DB shells.   NGrid=       302
 Pruned (  99, 590) grid will be used in numerical quadrature.
 IPart= 10 Atom number   3 atomic number  1 has       23164 grid points.
 IPart= 10 Atom   3 batch    1 overlaps    5 atoms,    50 shells and     5 DB shells.   NGrid=      2838
 Pruned (  99, 590) grid will be used in numerical quadrature.
 Symmetry reduced    86 angular points to    86 for atom    3.
 IPart= 11 Atom number   3 atomic number  1 has       23164 grid points.
 IPart= 11 Atom   3 batch    2 overlaps    5 atoms,    50 shells and     5 DB shells.   NGrid=      1552
 Symmetry reduced   194 angular points to   194 for atom    3.
 Pruned (  99, 590) grid will be used in numerical quadrature.
 IPart=  3 Atom number   3 atomic number  1 has       23164 grid points.
 IPart=  3 Atom   3 batch    3 overlaps    5 atoms,    50 shells and     5 DB shells.   NGrid=      2416
 Symmetry reduced   302 angular points to   302 for atom    3.
 Pruned (  99, 590) grid will be used in numerical quadrature.
 IPart=  4 Atom number   3 atomic number  1 has       23164 grid points.
 IPart=  4 Atom   3 batch    4 overlaps    5 atoms,    50 shells and     5 DB shells.   NGrid=      1180
 Pruned (  99, 590) grid will be used in numerical quadrature.
 Symmetry reduced   590 angular points to   590 for atom    3.
 IPart=  9 Atom number   3 atomic number  1 has       23164 grid points.
 IPart=  9 Atom   3 batch    5 overlaps    5 atoms,    50 shells and     5 DB shells.   NGrid=      1180
 Pruned (  99, 590) grid will be used in numerical quadrature.
 Symmetry reduced   590 angular points to   590 for atom    3.
 IPart=  5 Atom number   3 atomic number  1 has       23164 grid points.
 Pruned (  99, 590) grid will be used in numerical quadrature.
 IPart=  5 Atom   3 batch    6 overlaps    5 atoms,    50 shells and     5 DB shells.   NGrid=      1180
 IPart=  8 Atom number   3 atomic number  1 has       23164 grid points.
 IPart=  8 Atom   3 batch    7 overlaps    5 atoms,    50 shells and     5 DB shells.   NGrid=      1180
 Symmetry reduced   590 angular points to   590 for atom    3.
 Symmetry reduced   590 angular points to   590 for atom    3.
 Pruned (  99, 590) grid will be used in numerical quadrature.
 IPart= 14 Atom number   3 atomic number  1 has       23164 grid points.
 IPart= 14 Atom   3 batch    8 overlaps    5 atoms,    50 shells and     5 DB shells.   NGrid=      1180
 Symmetry reduced   590 angular points to   590 for atom    3.
 Pruned (  99, 590) grid will be used in numerical quadrature.
 IPart= 15 Atom number   3 atomic number  1 has       23164 grid points.
 IPart= 15 Atom   3 batch    9 overlaps    5 atoms,    50 shells and     5 DB shells.   NGrid=      1180
 Symmetry reduced   590 angular points to   590 for atom    3.
 Pruned (  99, 590) grid will be used in numerical quadrature.
 IPart= 12 Atom number   3 atomic number  1 has       23164 grid points.
 IPart= 12 Atom   3 batch   10 overlaps    5 atoms,    50 shells and     5 DB shells.   NGrid=      1180
 Symmetry reduced   590 angular points to   590 for atom    3.
 Pruned (  99, 590) grid will be used in numerical quadrature.
 IPart= 13 Atom number   3 atomic number  1 has       23164 grid points.
 IPart= 13 Atom   3 batch   11 overlaps    5 atoms,    50 shells and     5 DB shells.   NGrid=      1180
 Symmetry reduced   590 angular points to   590 for atom    3.
 Pruned (  99, 590) grid will be used in numerical quadrature.
 IPart=  0 Atom number   2 atomic number  7 has       23416 grid points.
 Pruned (  99, 590) grid will be used in numerical quadrature.
 Pruned (  99, 590) grid will be used in numerical quadrature.
 IPart=  0 Atom number   3 atomic number  1 has       23164 grid points.
 IPart=  1 Atom number   3 atomic number  1 has       23164 grid points.
 IPart=  0 Atom   3 batch   12 overlaps    5 atoms,    50 shells and     5 DB shells.   NGrid=      1180
 IPart=  1 Atom   3 batch   13 overlaps    5 atoms,    50 shells and     5 DB shells.   NGrid=       604
 Symmetry reduced   590 angular points to   590 for atom    3.
 Symmetry reduced   302 angular points to   302 for atom    3.
 Pruned (  99, 590) grid will be used in numerical quadrature.
 IPart=  6 Atom number   3 atomic number  1 has       23164 grid points.
 IPart=  6 Atom   3 batch   14 overlaps    5 atoms,    49 shells and     5 DB shells.   NGrid=       604
 Symmetry reduced   302 angular points to   302 for atom    3.
 Pruned (  99, 590) grid will be used in numerical quadrature.
 IPart=  7 Atom number   3 atomic number  1 has       23164 grid points.
 IPart=  7 Atom   3 batch   15 overlaps    5 atoms,    46 shells and     5 DB shells.   NGrid=       604
 Symmetry reduced   302 angular points to   302 for atom    3.
 IPart=  1 Atom   3 batch   16 overlaps    5 atoms,    43 shells and     5 DB shells.   NGrid=       604
 Pruned (  99, 590) grid will be used in numerical quadrature.
 IPart=  2 Atom number   3 atomic number  1 has       23164 grid points.
 IPart=  2 Atom   3 batch   17 overlaps    5 atoms,    33 shells and     5 DB shells.   NGrid=       604
 Symmetry reduced   302 angular points to   302 for atom    3.
 IPart=  4 Atom   3 batch   18 overlaps    5 atoms,    28 shells and     5 DB shells.   NGrid=       604
 Symmetry reduced   302 angular points to   302 for atom    3.
 IPart=  5 Atom   3 batch   19 overlaps    5 atoms,    16 shells and     4 DB shells.   NGrid=       604
 IPart=  8 Atom   3 batch   20 overlaps    5 atoms,    12 shells and     0 DB shells.   NGrid=       604
 Symmetry reduced   302 angular points to   302 for atom    3.
 IPart= 15 Atom   3 batch   21 overlaps    5 atoms,     5 shells and     0 DB shells.   NGrid=       604
 IPart=  9 Atom   3 batch   22 overlaps    5 atoms,     3 shells and     0 DB shells.   NGrid=       302
 Symmetry reduced   302 angular points to   302 for atom    3.
 Symmetry reduced   302 angular points to   302 for atom    3.
 Symmetry reduced   302 angular points to   302 for atom    3.
 Pruned (  99, 590) grid will be used in numerical quadrature.
 IPart= 13 Atom number   4 atomic number  1 has       23164 grid points.
 Pruned (  99, 590) grid will be used in numerical quadrature.
 IPart= 13 Atom   4 batch    1 overlaps    5 atoms,    50 shells and     5 DB shells.   NGrid=      2838
 IPart= 14 Atom number   4 atomic number  1 has       23164 grid points.
 Symmetry reduced    86 angular points to    86 for atom    4.
 IPart= 14 Atom   4 batch    2 overlaps    5 atoms,    50 shells and     5 DB shells.   NGrid=      1552
 Symmetry reduced   194 angular points to   194 for atom    4.
 Pruned (  99, 590) grid will be used in numerical quadrature.
 IPart=  6 Atom number   4 atomic number  1 has       23164 grid points.
 IPart=  6 Atom   4 batch    3 overlaps    5 atoms,    50 shells and     5 DB shells.   NGrid=      2416
 Symmetry reduced   302 angular points to   302 for atom    4.
 Pruned (  99, 590) grid will be used in numerical quadrature.
 IPart= 12 Atom number   4 atomic number  1 has       23164 grid points.
 IPart= 12 Atom   4 batch    4 overlaps    5 atoms,    50 shells and     5 DB shells.   NGrid=      1180
 Symmetry reduced   590 angular points to   590 for atom    4.
 Pruned (  99, 590) grid will be used in numerical quadrature.
 IPart=  9 Atom number   4 atomic number  1 has       23164 grid points.
 IPart=  9 Atom   4 batch    5 overlaps    5 atoms,    50 shells and     5 DB shells.   NGrid=      1180
 Symmetry reduced   590 angular points to   590 for atom    4.
 Pruned (  99, 590) grid will be used in numerical quadrature.
 IPart=  7 Atom number   4 atomic number  1 has       23164 grid points.
 IPart=  7 Atom   4 batch    6 overlaps    5 atoms,    50 shells and     5 DB shells.   NGrid=      1180
 Symmetry reduced   590 angular points to   590 for atom    4.
 Pruned (  99, 590) grid will be used in numerical quadrature.
 IPart=  0 Atom number   4 atomic number  1 has       23164 grid points.
 IPart=  0 Atom   4 batch    7 overlaps    5 atoms,    50 shells and     5 DB shells.   NGrid=      1180
 Pruned (  99, 590) grid will be used in numerical quadrature.
 Symmetry reduced   590 angular points to   590 for atom    4.
 IPart=  5 Atom number   4 atomic number  1 has       23164 grid points.
 IPart=  5 Atom   4 batch    8 overlaps    5 atoms,    50 shells and     5 DB shells.   NGrid=      1180
 Pruned (  99, 590) grid will be used in numerical quadrature.
 Symmetry reduced   590 angular points to   590 for atom    4.
 IPart=  1 Atom number   4 atomic number  1 has       23164 grid points.
 Pruned (  99, 590) grid will be used in numerical quadrature.
 IPart=  1 Atom   4 batch    9 overlaps    5 atoms,    50 shells and     5 DB shells.   NGrid=      1180
 IPart=  8 Atom number   4 atomic number  1 has       23164 grid points.
 IPart=  8 Atom   4 batch   10 overlaps    5 atoms,    50 shells and     5 DB shells.   NGrid=      1180
 Symmetry reduced   590 angular points to   590 for atom    4.
 Symmetry reduced   590 angular points to   590 for atom    4.
 Pruned (  99, 590) grid will be used in numerical quadrature.
 IPart= 15 Atom number   4 atomic number  1 has       23164 grid points.
 IPart= 15 Atom   4 batch   11 overlaps    5 atoms,    50 shells and     5 DB shells.   NGrid=      1180
 Symmetry reduced   590 angular points to   590 for atom    4.
 Pruned (  99, 590) grid will be used in numerical quadrature.
 IPart=  4 Atom number   4 atomic number  1 has       23164 grid points.
 IPart=  4 Atom   4 batch   12 overlaps    5 atoms,    50 shells and     5 DB shells.   NGrid=      1180
 Symmetry reduced   590 angular points to   590 for atom    4.
 Pruned (  99, 590) grid will be used in numerical quadrature.
 IPart=  2 Atom number   4 atomic number  1 has       23164 grid points.
 IPart=  2 Atom   4 batch   13 overlaps    5 atoms,    50 shells and     5 DB shells.   NGrid=       604
 Symmetry reduced   302 angular points to   302 for atom    4.
 Pruned (  99, 590) grid will be used in numerical quadrature.
 IPart= 11 Atom number   4 atomic number  1 has       23164 grid points.
 IPart= 11 Atom   4 batch   14 overlaps    5 atoms,    49 shells and     5 DB shells.   NGrid=       604
 Symmetry reduced   302 angular points to   302 for atom    4.
 IPart= 11 Atom   4 batch   15 overlaps    5 atoms,    46 shells and     5 DB shells.   NGrid=       604
 IPart=  2 Atom   4 batch   16 overlaps    5 atoms,    43 shells and     5 DB shells.   NGrid=       604
 Pruned (  99, 590) grid will be used in numerical quadrature.
 IPart=  3 Atom number   4 atomic number  1 has       23164 grid points.
 IPart=  3 Atom   4 batch   17 overlaps    5 atoms,    33 shells and     5 DB shells.   NGrid=       604
 Symmetry reduced   302 angular points to   302 for atom    4.
 IPart= 12 Atom   4 batch   18 overlaps    5 atoms,    28 shells and     5 DB shells.   NGrid=       604
 Symmetry reduced   302 angular points to   302 for atom    4.
 IPart=  4 Atom   4 batch   19 overlaps    5 atoms,    16 shells and     4 DB shells.   NGrid=       604
 IPart=  9 Atom   4 batch   20 overlaps    5 atoms,    12 shells and     0 DB shells.   NGrid=       604
 Symmetry reduced   302 angular points to   302 for atom    4.
 Symmetry reduced   302 angular points to   302 for atom    4.
 IPart=  7 Atom   4 batch   21 overlaps    5 atoms,     5 shells and     0 DB shells.   NGrid=       604
 Symmetry reduced   302 angular points to   302 for atom    4.
 IPart=  0 Atom   4 batch   22 overlaps    5 atoms,     3 shells and     0 DB shells.   NGrid=       302
 Pruned (  99, 590) grid will be used in numerical quadrature.
 Symmetry reduced   302 angular points to   302 for atom    4.
 IPart=  1 Atom number   5 atomic number  1 has       23164 grid points.
 IPart=  1 Atom   5 batch    1 overlaps    5 atoms,    50 shells and     5 DB shells.   NGrid=      2838
 Symmetry reduced    86 angular points to    86 for atom    5.
 Pruned (  99, 590) grid will be used in numerical quadrature.
 IPart= 15 Atom number   5 atomic number  1 has       23164 grid points.
 IPart= 15 Atom   5 batch    2 overlaps    5 atoms,    50 shells and     5 DB shells.   NGrid=      1552
 Symmetry reduced   194 angular points to   194 for atom    5.
 Pruned (  99, 590) grid will be used in numerical quadrature.
 IPart=  5 Atom number   5 atomic number  1 has       23164 grid points.
 IPart=  5 Atom   5 batch    3 overlaps    5 atoms,    50 shells and     5 DB shells.   NGrid=      2416
 Pruned (  99, 590) grid will be used in numerical quadrature.
 Symmetry reduced   302 angular points to   302 for atom    5.
 IPart=  8 Atom number   5 atomic number  1 has       23164 grid points.
 IPart=  8 Atom   5 batch    4 overlaps    5 atoms,    50 shells and     5 DB shells.   NGrid=      1180
 Pruned (  99, 590) grid will be used in numerical quadrature.
 Symmetry reduced   590 angular points to   590 for atom    5.
 IPart= 11 Atom number   5 atomic number  1 has       23164 grid points.
 IPart= 11 Atom   5 batch    5 overlaps    5 atoms,    50 shells and     5 DB shells.   NGrid=      1180
 Symmetry reduced   590 angular points to   590 for atom    5.
 Pruned (  99, 590) grid will be used in numerical quadrature.
 Pruned (  99, 590) grid will be used in numerical quadrature.
 IPart= 10 Atom number   4 atomic number  1 has       23164 grid points.
 Pruned (  99, 590) grid will be used in numerical quadrature.
 IPart=  2 Atom number   5 atomic number  1 has       23164 grid points.
 IPart= 10 Atom number   5 atomic number  1 has       23164 grid points.
 IPart=  2 Atom   5 batch    7 overlaps    5 atoms,    50 shells and     5 DB shells.   NGrid=      1180
 IPart= 10 Atom   5 batch    6 overlaps    5 atoms,    50 shells and     5 DB shells.   NGrid=      1180
 Pruned (  99, 590) grid will be used in numerical quadrature.
 Symmetry reduced   590 angular points to   590 for atom    5.
 Symmetry reduced   590 angular points to   590 for atom    5.
 IPart=  0 Atom number   5 atomic number  1 has       23164 grid points.
 IPart=  0 Atom   5 batch    8 overlaps    5 atoms,    50 shells and     5 DB shells.   NGrid=      1180
 Symmetry reduced   590 angular points to   590 for atom    5.
 Pruned (  99, 590) grid will be used in numerical quadrature.
 IPart=  4 Atom number   5 atomic number  1 has       23164 grid points.
 IPart=  4 Atom   5 batch    9 overlaps    5 atoms,    50 shells and     5 DB shells.   NGrid=      1180
 Pruned (  99, 590) grid will be used in numerical quadrature.
 Symmetry reduced   590 angular points to   590 for atom    5.
 IPart=  9 Atom number   5 atomic number  1 has       23164 grid points.
 IPart=  9 Atom   5 batch   10 overlaps    5 atoms,    50 shells and     5 DB shells.   NGrid=      1180
 Symmetry reduced   590 angular points to   590 for atom    5.
 Pruned (  99, 590) grid will be used in numerical quadrature.
 IPart=  7 Atom number   5 atomic number  1 has       23164 grid points.
 IPart=  7 Atom   5 batch   11 overlaps    5 atoms,    50 shells and     5 DB shells.   NGrid=      1180
 Symmetry reduced   590 angular points to   590 for atom    5.
 Pruned (  99, 590) grid will be used in numerical quadrature.
 Pruned (  99, 590) grid will be used in numerical quadrature.
 IPart= 12 Atom number   5 atomic number  1 has       23164 grid points.
 IPart=  3 Atom number   5 atomic number  1 has       23164 grid points.
 IPart= 12 Atom   5 batch   12 overlaps    5 atoms,    50 shells and     5 DB shells.   NGrid=      1180
 IPart=  3 Atom   5 batch   13 overlaps    5 atoms,    50 shells and     5 DB shells.   NGrid=       604
 Symmetry reduced   590 angular points to   590 for atom    5.
 Symmetry reduced   302 angular points to   302 for atom    5.
 Pruned (  99, 590) grid will be used in numerical quadrature.
 IPart= 14 Atom number   5 atomic number  1 has       23164 grid points.
 IPart= 14 Atom   5 batch   14 overlaps    5 atoms,    49 shells and     5 DB shells.   NGrid=       604
 Symmetry reduced   302 angular points to   302 for atom    5.
 IPart= 14 Atom   5 batch   15 overlaps    5 atoms,    46 shells and     5 DB shells.   NGrid=       604
 IPart=  3 Atom   5 batch   16 overlaps    5 atoms,    43 shells and     5 DB shells.   NGrid=       604
 Pruned (  99, 590) grid will be used in numerical quadrature.
 IPart=  6 Atom number   5 atomic number  1 has       23164 grid points.
 IPart=  6 Atom   5 batch   17 overlaps    5 atoms,    33 shells and     5 DB shells.   NGrid=       604
 Symmetry reduced   302 angular points to   302 for atom    5.
 IPart=  8 Atom   5 batch   18 overlaps    5 atoms,    28 shells and     5 DB shells.   NGrid=       604
 Symmetry reduced   302 angular points to   302 for atom    5.
 IPart= 11 Atom   5 batch   19 overlaps    5 atoms,    16 shells and     4 DB shells.   NGrid=       604
 Symmetry reduced   302 angular points to   302 for atom    5.
 IPart=  4 Atom   5 batch   20 overlaps    5 atoms,    12 shells and     0 DB shells.   NGrid=       604
 IPart= 10 Atom   5 batch   21 overlaps    5 atoms,     5 shells and     0 DB shells.   NGrid=       604
 Symmetry reduced   302 angular points to   302 for atom    5.
 Symmetry reduced   302 angular points to   302 for atom    5.
 IPart=  2 Atom   5 batch   22 overlaps    5 atoms,     3 shells and     0 DB shells.   NGrid=       302
 Symmetry reduced   302 angular points to   302 for atom    5.
 Pruned (  99, 590) grid will be used in numerical quadrature.
 IPart= 13 Atom number   5 atomic number  1 has       23164 grid points.
 There are a total of      115770 grid points.
 ElSum from          density=       10.0000007618
 ElSum from atomic densities=       11.0000023975

 Hirshfeld populations at iteration   1 (CX, CA, CB, DipXYZ):
               1          2          3          4          5          6
     1  H    0.000000   0.384833   0.384833   0.123720   0.123720   0.123720
     2  N    0.000000   3.460667   3.460667  -0.000000   0.000000  -0.000000
     3  H    0.000000   0.384833   0.384833  -0.123720  -0.123720   0.123720
     4  H    0.000000   0.384833   0.384833  -0.123720   0.123720  -0.123720
     5  H    0.000000   0.384833   0.384833   0.123720  -0.123720  -0.123720
       Tot   0.000002   5.000000   5.000000   0.000000  -0.000000   0.000000

 Dip from Atomic Chgs              0.000000  -0.000000   0.000000
         Total Dipole              0.000000  -0.000000   0.000000

 Hirshfeld charges, spin densities, dipoles, and CM5 charges using IRadAn=      5:
              Q-H        S-H        Dx         Dy         Dz        Q-CM5   
     1  H    0.230333   0.000000   0.123720   0.123720   0.123720   0.413922
     2  N    0.078666   0.000000  -0.000000   0.000000  -0.000000  -0.655687
     3  H    0.230333   0.000000  -0.123720  -0.123720   0.123720   0.413922
     4  H    0.230333   0.000000  -0.123720   0.123720  -0.123720   0.413922
     5  H    0.230333   0.000000   0.123720  -0.123720  -0.123720   0.413922
       Tot   0.999999   0.000000   0.000000  -0.000000   0.000000   0.999999
 Hirshfeld charges with hydrogens summed into heavy atoms:
              Q-H       Q-CM5   
     2  N    0.999999   0.999999
 
 EQQ=  0.00000000000     EQD=  0.00000000000     EDD=-0.303381971053E-02
 EQQ+QD+DD=-0.303381971053E-02
 
 Entering OneElI...
 OneElI was handed  4294920311 working-precision words.
 Calculate electrostatic properties
    NBasis =   138  MinDer = 0  MaxDer = 0
    NGrid  =     5  NMatD  =   1
 Requested accuracy = 0.1000D-12
 ShPair: Thresh= 1.00D-13 NBox=     0 BxSize= 0.00D+00 RnKept= 3.12D+00
         NSMCal=                 1275 NSMKep=                1242
 PrmmSu-InSpLW:  IPartL=    0 NPrtUS=   16 NPrtUL=    1 DoSpLW=F IThBeg=    0 IThEnd=   15 NThAct=   16.
 PrSmSu:  IncTry=   512 NBBP=           6210 NTPThr=   100 NPartT=   16 Incr=           3 LDynOK=F GPUOK=F.
 PrsmSu:  NPrtUS=  16 ThrOK=T IAlg=2 LenDen=           0 ISkipM=0 DoSpLW=F IThBeg=    0 IThEnd=   15.
 Prism:   IPart=     0 DynPar=F LinDyn=F Incr=           3.
 PRISM was handed   268408679 working-precision words and  1242 shell-pairs
 PRISM was handed   268408679 working-precision words and  1242 shell-pairs
 PRISM was handed   268408679 working-precision words and  1242 shell-pairs
 PRISM was handed   268408679 working-precision words and  1242 shell-pairs
 PRISM was handed   268408679 working-precision words and  1242 shell-pairs
 PRISM was handed   268408679 working-precision words and  1242 shell-pairs
 PRISM was handed   268408679 working-precision words and  1242 shell-pairs
 PRISM was handed   268408679 working-precision words and  1242 shell-pairs
 PRISM was handed   268408679 working-precision words and  1242 shell-pairs
 PRISM was handed   268408679 working-precision words and  1242 shell-pairs
 PRISM was handed   268408679 working-precision words and  1242 shell-pairs
 PRISM was handed   268408679 working-precision words and  1242 shell-pairs
 PRISM was handed   268408679 working-precision words and  1242 shell-pairs
 PRISM was handed   268408679 working-precision words and  1242 shell-pairs
 PRISM was handed   268408679 working-precision words and  1242 shell-pairs
 PRISM was handed   268408679 working-precision words and  1242 shell-pairs
 IPart=  7 NShTot=         400 NBatch=          80 AvBLen=         5.0
 PrsmSu-ThDecC:  IPartSL=    7    0 NPrtUSL=   16    1 IThBeg=    0 IThEnd=   15 CPU=   -1 GPU=   -1 NThAct=   16.
 IPart=  5 NShTot=         405 NBatch=          81 AvBLen=         5.0
 IPart= 15 NShTot=         315 NBatch=          63 AvBLen=         5.0
 PrsmSu-ThDecC:  IPartSL=    5    0 NPrtUSL=   16    1 IThBeg=    0 IThEnd=   15 CPU=   -1 GPU=   -1 NThAct=   15.
 IPart=  9 NShTot=         365 NBatch=          73 AvBLen=         5.0
 IPart= 14 NShTot=         325 NBatch=          65 AvBLen=         5.0
 IPart=  6 NShTot=         400 NBatch=          80 AvBLen=         5.0
 IPart= 13 NShTot=         340 NBatch=          68 AvBLen=         5.0
 IPart=  8 NShTot=         365 NBatch=          73 AvBLen=         5.0
 PrsmSu-ThDecC:  IPartSL=   15    0 NPrtUSL=   16    1 IThBeg=    0 IThEnd=   15 CPU=   -1 GPU=   -1 NThAct=   14.
 IPart= 10 NShTot=         365 NBatch=          73 AvBLen=         5.0
 IPart=  3 NShTot=         435 NBatch=          87 AvBLen=         5.0
 IPart=  4 NShTot=         415 NBatch=          83 AvBLen=         5.0
 IPart=  2 NShTot=         440 NBatch=          88 AvBLen=         5.0
 IPart=  1 NShTot=         460 NBatch=          92 AvBLen=         5.0
 IPart=  0 NShTot=         480 NBatch=          96 AvBLen=         5.0
 PrsmSu-ThDecC:  IPartSL=    8    0 NPrtUSL=   16    1 IThBeg=    0 IThEnd=   15 CPU=   -1 GPU=   -1 NThAct=   13.
 IPart= 11 NShTot=         360 NBatch=          72 AvBLen=         5.0
 PrsmSu-ThDecC:  IPartSL=   14    0 NPrtUSL=   16    1 IThBeg=    0 IThEnd=   15 CPU=   -1 GPU=   -1 NThAct=   12.
 IPart= 12 NShTot=         340 NBatch=          68 AvBLen=         5.0
 PrsmSu-ThDecC:  IPartSL=    0    0 NPrtUSL=   16    1 IThBeg=    0 IThEnd=   15 CPU=   -1 GPU=   -1 NThAct=   11.
 PrsmSu-ThDecC:  IPartSL=    9    0 NPrtUSL=   16    1 IThBeg=    0 IThEnd=   15 CPU=   -1 GPU=   -1 NThAct=   10.
 PrsmSu-ThDecC:  IPartSL=    4    0 NPrtUSL=   16    1 IThBeg=    0 IThEnd=   15 CPU=   -1 GPU=   -1 NThAct=    9.
 PrsmSu-ThDecC:  IPartSL=   12    0 NPrtUSL=   16    1 IThBeg=    0 IThEnd=   15 CPU=   -1 GPU=   -1 NThAct=    8.
 PrsmSu-ThDecC:  IPartSL=    2    0 NPrtUSL=   16    1 IThBeg=    0 IThEnd=   15 CPU=   -1 GPU=   -1 NThAct=    7.
 PrsmSu-ThDecC:  IPartSL=   13    0 NPrtUSL=   16    1 IThBeg=    0 IThEnd=   15 CPU=   -1 GPU=   -1 NThAct=    6.
 PrsmSu-ThDecC:  IPartSL=    6    0 NPrtUSL=   16    1 IThBeg=    0 IThEnd=   15 CPU=   -1 GPU=   -1 NThAct=    5.
 PrsmSu-ThDecC:  IPartSL=    1    0 NPrtUSL=   16    1 IThBeg=    0 IThEnd=   15 CPU=   -1 GPU=   -1 NThAct=    4.
 PrsmSu-ThDecC:  IPartSL=   10    0 NPrtUSL=   16    1 IThBeg=    0 IThEnd=   15 CPU=   -1 GPU=   -1 NThAct=    3.
 PrsmSu-ThDecC:  IPartSL=   11    0 NPrtUSL=   16    1 IThBeg=    0 IThEnd=   15 CPU=   -1 GPU=   -1 NThAct=    2.
 PrsmSu-ThDecC:  IPartSL=    3    0 NPrtUSL=   16    1 IThBeg=    0 IThEnd=   15 CPU=   -1 GPU=   -1 NThAct=    1.
 PrSmSu:  NxtVal=             49.
 --------------------------------------------------------
       Center         ----      EFG at Nuclei      ----
                      3XX-RR        3YY-RR        3ZZ-RR
 --------------------------------------------------------
     1   Atom        0.000000      0.000000     -0.000000
     2   Atom       -0.000000      0.000000     -0.000000
     3   Atom       -0.000000      0.000000     -0.000000
     4   Atom        0.000000      0.000000     -0.000000
     5   Atom        0.000000      0.000000     -0.000000
 --------------------------------------------------------
                        XY            XZ            YZ
 --------------------------------------------------------
     1   Atom       -0.185436     -0.185436     -0.185436
     2   Atom        0.000000     -0.000000      0.000000
     3   Atom       -0.185436      0.185436      0.185436
     4   Atom        0.185436     -0.185436      0.185436
     5   Atom        0.185436      0.185436     -0.185436
 --------------------------------------------------------


 ---------------------------------------------------------------------------------
              Nuclear Quadrupole Coupling Constant in Principal Axis System
 ---------------------------------------------------------------------------------

       Atom             a.u.   MegaHertz   Gauss  10(-4) cm-1        Axes

              Baa    -0.0000     0.000     0.000     0.000  0.6539 -0.0363  0.7557
     2 N(14)  Bbb    -0.0000     0.000     0.000     0.000  0.7565  0.0130 -0.6539
              Bcc     0.0000    -0.000    -0.000    -0.000  0.0139  0.9993  0.0360
 

 ---------------------------------------------------------------------------------

 No NMR shielding tensors so no spin-rotation constants.
 Leave Link  601 at Tue Sep 30 16:58:57 2025, MaxMem=  4294967296 cpu:               2.8 elap:               0.2
 (Enter /software/sse/easybuild/prefix/software/Gaussian/16.C.01-avx2-nsc1/g16/l602.exe)
 FitSet:  NAtFit=     5 NAtPot=     5 NAtFrz=     0 MDM=     9 TotChg=   1.00000
 Merz-Kollman atomic radii used.
 Atom Element Radius
    1     1    1.20
    2     7    1.50
    3     1    1.20
    4     1    1.20
    5     1    1.20
 Generate VDW surfaces: Layer= 4 Dens= 6 Start= 1.400 Inc= 0.200

 **********************************************************************

            Electrostatic Properties Using The MP2 Density.

 **********************************************************************

       Atomic Center    1 is at   0.583090  0.583090  0.583090
       Atomic Center    2 is at   0.000000  0.000000  0.000000
       Atomic Center    3 is at  -0.583090 -0.583090  0.583090
       Atomic Center    4 is at  -0.583090  0.583090 -0.583090
       Atomic Center    5 is at   0.583090 -0.583090 -0.583090
      ESP Fit Center    6 is at   0.583090  0.583090  2.263090
      ESP Fit Center    7 is at   1.017906  0.583090  2.205845
      ESP Fit Center    8 is at   0.800498  0.959652  2.205845
      ESP Fit Center    9 is at   0.365682  0.959652  2.205845
      ESP Fit Center   10 is at   0.148274  0.583090  2.205845
      ESP Fit Center   11 is at   0.365682  0.206528  2.205845
      ESP Fit Center   12 is at   0.800498  0.206528  2.205845
      ESP Fit Center   13 is at   1.423090  0.583090  2.038013
      ESP Fit Center   14 is at   1.310551  1.003090  2.038013
      ESP Fit Center   15 is at   1.003090  1.310551  2.038013
      ESP Fit Center   16 is at   0.583090  1.423090  2.038013
      ESP Fit Center   17 is at   0.163090  1.310551  2.038013
      ESP Fit Center   18 is at  -0.144371  1.003090  2.038013
      ESP Fit Center   19 is at  -0.256910  0.583090  2.038013
      ESP Fit Center   20 is at   0.583090 -0.256910  2.038013
      ESP Fit Center   21 is at   1.003090 -0.144371  2.038013
      ESP Fit Center   22 is at   1.310551  0.163090  2.038013
      ESP Fit Center   23 is at   1.771029  0.583090  1.771029
      ESP Fit Center   24 is at   1.690810  1.012223  1.771029
      ESP Fit Center   25 is at   1.460988  1.383400  1.771029
      ESP Fit Center   26 is at   1.112600  1.646490  1.771029
      ESP Fit Center   27 is at   0.692699  1.765962  1.771029
      ESP Fit Center   28 is at   0.257995  1.725681  1.771029
      ESP Fit Center   29 is at  -0.132803  1.531086  1.771029
      ESP Fit Center   30 is at  -0.426916  1.208460  1.771029
      ESP Fit Center   31 is at   1.112600 -0.480310  1.771029
      ESP Fit Center   32 is at   1.460988 -0.217220  1.771029
      ESP Fit Center   33 is at   1.690810  0.153957  1.771029
      ESP Fit Center   34 is at   2.038013  0.583090  1.423090
      ESP Fit Center   35 is at   1.973375  1.011936  1.423090
      ESP Fit Center   36 is at   1.785204  1.402677  1.423090
      ESP Fit Center   37 is at   1.490219  1.720594  1.423090
      ESP Fit Center   38 is at   1.114633  1.937439  1.423090
      ESP Fit Center   39 is at   0.691817  2.033944  1.423090
      ESP Fit Center   40 is at   0.259339  2.001535  1.423090
      ESP Fit Center   41 is at  -0.144371  1.843090  1.423090
      ESP Fit Center   42 is at  -0.483444  1.572689  1.423090
      ESP Fit Center   43 is at   1.490219 -0.554414  1.423090
      ESP Fit Center   44 is at   1.785204 -0.236497  1.423090
      ESP Fit Center   45 is at   1.973375  0.154244  1.423090
      ESP Fit Center   46 is at   2.205845  0.583090  1.017906
      ESP Fit Center   47 is at   2.150551  1.003090  1.017906
      ESP Fit Center   48 is at   1.988437  1.394468  1.017906
[...]
 1442 Fit       0.180900
 1443 Fit       0.185560
 1444 Fit       0.191649
 1445 Fit       0.188426
 1446 Fit       0.183054
 1447 Fit       0.179089
 1448 Fit       0.176439
 1449 Fit       0.175006
 1450 Fit       0.174724
 1451 Fit       0.175576
 1452 Fit       0.178871
 1453 Fit       0.182802
 1454 Fit       0.188516
 1455 Fit       0.188516
 1456 Fit       0.182802
 1457 Fit       0.178871
 1458 Fit       0.176908
 1459 Fit       0.176908
 1460 Fit       0.181075
 1461 Fit       0.186111
 1462 Fit       0.190788
 1463 Fit       0.188952
 1464 Fit       0.183257
 1465 Fit       0.179916
 1466 Fit       0.184365
 1467 Fit       0.170455
 1468 Fit       0.167606
 1469 Fit       0.166595
 1470 Fit       0.169489
 1471 Fit       0.174255
 1472 Fit       0.171904
 1473 Fit       0.165580
 1474 Fit       0.163832
 1475 Fit       0.163832
 1476 Fit       0.165580
 1477 Fit       0.169015
 1478 Fit       0.173845
 1479 Fit       0.173845
 1480 Fit       0.169015
 1481 Fit       0.164282
 1482 Fit       0.162460
 1483 Fit       0.161688
 1484 Fit       0.161945
 1485 Fit       0.163237
 1486 Fit       0.165598
 1487 Fit       0.169065
 1488 Fit       0.173637
 1489 Fit       0.171216
 1490 Fit       0.167192
 1491 Fit       0.163648
 1492 Fit       0.161785
 1493 Fit       0.160729
 1494 Fit       0.160444
 1495 Fit       0.160920
 1496 Fit       0.162173
 1497 Fit       0.164246
 1498 Fit       0.167199
 1499 Fit       0.171098
 1500 Fit       0.170031
 1501 Fit       0.166375
 1502 Fit       0.163648
 1503 Fit       0.161704
 1504 Fit       0.160472
 1505 Fit       0.159907
 1506 Fit       0.159987
 1507 Fit       0.160716
 1508 Fit       0.162121
 1509 Fit       0.164252
 1510 Fit       0.167174
 1511 Fit       0.170965
 1512 Fit       0.169931
 1513 Fit       0.166366
 1514 Fit       0.164282
 1515 Fit       0.162253
 1516 Fit       0.160873
 1517 Fit       0.160092
 1518 Fit       0.159881
 1519 Fit       0.160233
 1520 Fit       0.161160
 1521 Fit       0.162697
 1522 Fit       0.164897
 1523 Fit       0.167827
 1524 Fit       0.171562
 1525 Fit       0.170548
 1526 Fit       0.167022
 1527 Fit       0.165580
 1528 Fit       0.163336
 1529 Fit       0.161774
 1530 Fit       0.160834
 1531 Fit       0.160478
 1532 Fit       0.160692
 1533 Fit       0.161483
 1534 Fit       0.162884
 1535 Fit       0.164951
 1536 Fit       0.167757
 1537 Fit       0.171389
 1538 Fit       0.172437
 1539 Fit       0.168584
 1540 Fit       0.167606
 1541 Fit       0.165113
 1542 Fit       0.163346
 1543 Fit       0.162233
 1544 Fit       0.161723
 1545 Fit       0.161795
 1546 Fit       0.162453
 1547 Fit       0.163725
 1548 Fit       0.165665
 1549 Fit       0.168354
 1550 Fit       0.171890
 1551 Fit       0.170920
 1552 Fit       0.170455
 1553 Fit       0.167606
 1554 Fit       0.165580
 1555 Fit       0.164282
 1556 Fit       0.163648
 1557 Fit       0.163648
 1558 Fit       0.164282
 1559 Fit       0.165580
 1560 Fit       0.167606
 1561 Fit       0.170455
 1562 Fit       0.174255
 1563 Fit       0.174255
 1564 Fit       0.174255
 1565 Fit       0.170837
 1566 Fit       0.168456
 1567 Fit       0.166973
 1568 Fit       0.166300
 1569 Fit       0.166395
 1570 Fit       0.167266
 1571 Fit       0.168963
 1572 Fit       0.171587
 1573 Fit       0.172153
 1574 Fit       0.170499
 1575 Fit       0.169880
 1576 Fit       0.170250
 1577 Fit       0.171637
 1578 Fit       0.174145
 1579 Fit       0.174467
 1580 Fit       0.174624
 1581 Fit       0.174910
 1582 Fit       0.174342
 1583 Fit       0.174624
 1584 Fit       0.174910
 1585 Fit       0.174342
 1586 Fit       0.173986
 1587 Fit       0.173986
 1588 Fit       0.173986
 1589 Fit       0.173986
 1590 Fit       0.173445
 1591 Fit       0.173161
 1592 Fit       0.173990
 1593 Fit       0.173445
 1594 Fit       0.173161
 1595 Fit       0.173990
 1596 Fit       0.173667
 1597 Fit       0.172524
 1598 Fit       0.172393
 1599 Fit       0.173293
 1600 Fit       0.172976
 1601 Fit       0.172327
 1602 Fit       0.172719
 1603 Fit       0.172979
 1604 Fit       0.171867
 1605 Fit       0.171560
 1606 Fit       0.172071
 1607 Fit       0.173376
 1608 Fit       0.172325
 1609 Fit       0.171612
 1610 Fit       0.171714
 1611 Fit       0.172628
 1612 Fit       0.172908
 1613 Fit       0.171629
 1614 Fit       0.171034
 1615 Fit       0.171119
 1616 Fit       0.171885
 1617 Fit       0.173333
 1618 Fit       0.172183
 1619 Fit       0.171246
 1620 Fit       0.170992
 1621 Fit       0.171416
 1622 Fit       0.172524
 1623 Fit       0.172914
 1624 Fit       0.171663
 1625 Fit       0.170960
 1626 Fit       0.170772
 1627 Fit       0.171086
 1628 Fit       0.171924
 1629 Fit       0.173316
 1630 Fit       0.173752
 1631 Fit       0.172219
 1632 Fit       0.171245
 1633 Fit       0.170803
 1634 Fit       0.170866
 1635 Fit       0.171438
 1636 Fit       0.172549
 1637 Fit       0.174056
 1638 Fit       0.172653
 1639 Fit       0.171720
 1640 Fit       0.171199
 1641 Fit       0.171033
 1642 Fit       0.171199
 1643 Fit       0.171720
 1644 Fit       0.172653
 1645 Fit       0.174056
 1646 Fit       0.174056
 1647 Fit       0.172653
 1648 Fit       0.171720
 1649 Fit       0.171199
 1650 Fit       0.171033
 1651 Fit       0.171199
 1652 Fit       0.171720
 1653 Fit       0.172653
 1654 Fit       0.174056
 1655 Fit       0.173673
 1656 Fit       0.172790
 1657 Fit       0.172254
 1658 Fit       0.171977
 1659 Fit       0.171884
 1660 Fit       0.171939
 1661 Fit       0.172164
 1662 Fit       0.172627
 1663 Fit       0.173416
 1664 Fit       0.174596
 1665 Fit       0.174263
 1666 Fit       0.173184
 1667 Fit       0.172484
 1668 Fit       0.172088
 1669 Fit       0.171911
 1670 Fit       0.171893
 1671 Fit       0.172027
 1672 Fit       0.172360
 1673 Fit       0.172976
 1674 Fit       0.173955
 1675 Fit       0.174811
 1676 Fit       0.174178
 1677 Fit       0.173635
 1678 Fit       0.173387
 1679 Fit       0.173331
 1680 Fit       0.173353
 1681 Fit       0.173366
 1682 Fit       0.173345
 1683 Fit       0.173334
 1684 Fit       0.173427
 1685 Fit       0.173740
 1686 Fit       0.174367
 1687 Fit       0.174578
 1688 Fit       0.173865
 1689 Fit       0.173480
 1690 Fit       0.173342
 1691 Fit       0.173339
 1692 Fit       0.173363
 1693 Fit       0.173359
 1694 Fit       0.173333
 1695 Fit       0.173360
 1696 Fit       0.173549
 1697 Fit       0.174010
 1698 Fit       0.174507
 1699 Fit       0.175006
 1700 Fit       0.174602
 1701 Fit       0.174349
 1702 Fit       0.174413
 1703 Fit       0.174371
 1704 Fit       0.174380
 1705 Fit       0.174717
 1706 Fit       0.174852
 1707 Fit       0.174433
 1708 Fit       0.174345
 1709 Fit       0.174539
 1710 Fit       0.174470
 1711 Fit       0.174337
 1712 Fit       0.174507
 1713 Fit       0.174337
 1714 Fit       0.174470
 1715 Fit       0.174539
 1716 Fit       0.174345
 1717 Fit       0.174433
 1718 Fit       0.174852
 1719 Fit       0.174717
 1720 Fit       0.174380
 1721 Fit       0.174371
 1722 Fit       0.174413
 1723 Fit       0.174349
 1724 Fit       0.174602
 1725 Fit       0.175006
 1726 Fit       0.174811
 1727 Fit       0.174010
 1728 Fit       0.173549
 1729 Fit       0.173360
 1730 Fit       0.173333
 1731 Fit       0.173359
 1732 Fit       0.173363
 1733 Fit       0.173339
 1734 Fit       0.173342
 1735 Fit       0.173480
 1736 Fit       0.173865
 1737 Fit       0.174578
 1738 Fit       0.174367
 1739 Fit       0.173740
 1740 Fit       0.173427
 1741 Fit       0.173334
 1742 Fit       0.173345
 1743 Fit       0.173366
 1744 Fit       0.173353
 1745 Fit       0.173331
 1746 Fit       0.173387
 1747 Fit       0.173635
 1748 Fit       0.174178
 1749 Fit       0.173955
 1750 Fit       0.172976
 1751 Fit       0.172360
 1752 Fit       0.172027
 1753 Fit       0.171893
 1754 Fit       0.171911
 1755 Fit       0.172088
 1756 Fit       0.172484
 1757 Fit       0.173184
 1758 Fit       0.174263
 1759 Fit       0.174596
 1760 Fit       0.173416
 1761 Fit       0.172627
 1762 Fit       0.172164
 1763 Fit       0.171939
 1764 Fit       0.171884
 1765 Fit       0.171977
 1766 Fit       0.172254
 1767 Fit       0.172790
 1768 Fit       0.173673
 1769 Fit       0.174056
 1770 Fit       0.172653
 1771 Fit       0.171720
 1772 Fit       0.171199
 1773 Fit       0.171033
 1774 Fit       0.171199
 1775 Fit       0.171720
 1776 Fit       0.172653
 1777 Fit       0.174056
 1778 Fit       0.174056
 1779 Fit       0.172653
 1780 Fit       0.171720
 1781 Fit       0.171199
 1782 Fit       0.171033
 1783 Fit       0.171199
 1784 Fit       0.171720
 1785 Fit       0.172653
 1786 Fit       0.174056
 1787 Fit       0.172549
 1788 Fit       0.171438
 1789 Fit       0.170866
 1790 Fit       0.170803
 1791 Fit       0.171245
 1792 Fit       0.172219
 1793 Fit       0.173752
 1794 Fit       0.173316
 1795 Fit       0.171924
 1796 Fit       0.171086
 1797 Fit       0.170772
 1798 Fit       0.170960
 1799 Fit       0.171663
 1800 Fit       0.172914
 1801 Fit       0.172524
 1802 Fit       0.171416
 1803 Fit       0.170992
 1804 Fit       0.171246
 1805 Fit       0.172183
 1806 Fit       0.173333
 1807 Fit       0.171885
 1808 Fit       0.171119
 1809 Fit       0.171034
 1810 Fit       0.171629
 1811 Fit       0.172908
 1812 Fit       0.172628
 1813 Fit       0.171714
 1814 Fit       0.171612
 1815 Fit       0.172325
 1816 Fit       0.173376
 1817 Fit       0.172071
 1818 Fit       0.171560
 1819 Fit       0.171867
 1820 Fit       0.172979
 1821 Fit       0.172719
 1822 Fit       0.172327
 1823 Fit       0.172976
 1824 Fit       0.173293
 1825 Fit       0.172393
 1826 Fit       0.172524
 1827 Fit       0.173667
 1828 Fit       0.173990
 1829 Fit       0.173161
 1830 Fit       0.173445
 1831 Fit       0.173990
 1832 Fit       0.173161
 1833 Fit       0.173445
 1834 Fit       0.173986
 1835 Fit       0.173986
 1836 Fit       0.173986
 1837 Fit       0.173986
 1838 Fit       0.174624
 1839 Fit       0.174342
 1840 Fit       0.174910
 1841 Fit       0.174624
 1842 Fit       0.174342
 1843 Fit       0.174910
 1844 Fit       0.174467
 1845 Fit       0.170455
 1846 Fit       0.174255
 1847 Fit       0.171904
 1848 Fit       0.167606
 1849 Fit       0.166595
 1850 Fit       0.169489
 1851 Fit       0.173845
 1852 Fit       0.169015
 1853 Fit       0.165580
 1854 Fit       0.163832
 1855 Fit       0.163832
 1856 Fit       0.165580
 1857 Fit       0.169015
 1858 Fit       0.173845
 1859 Fit       0.171216
 1860 Fit       0.167192
 1861 Fit       0.164282
 1862 Fit       0.162460
 1863 Fit       0.161688
 1864 Fit       0.161945
 1865 Fit       0.163237
 1866 Fit       0.165598
 1867 Fit       0.169065
 1868 Fit       0.173637
 1869 Fit       0.172229
 1870 Fit       0.168082
 1871 Fit       0.164899
 1872 Fit       0.162613
 1873 Fit       0.161159
 1874 Fit       0.160492
 1875 Fit       0.160587
 1876 Fit       0.161447
 1877 Fit       0.163104
 1878 Fit       0.165609
 1879 Fit       0.169026
 1880 Fit       0.173425
 1881 Fit       0.172058
 1882 Fit       0.168037
 1883 Fit       0.164906
 1884 Fit       0.162584
 1885 Fit       0.161003
 1886 Fit       0.160108
 1887 Fit       0.159867
 1888 Fit       0.160269
 1889 Fit       0.161332
 1890 Fit       0.163092
 1891 Fit       0.165610
 1892 Fit       0.168956
 1893 Fit       0.173212
 1894 Fit       0.172630
 1895 Fit       0.168682
 1896 Fit       0.165559
 1897 Fit       0.163183
 1898 Fit       0.161485
 1899 Fit       0.160409
 1900 Fit       0.159916
 1901 Fit       0.159986
 1902 Fit       0.160623
 1903 Fit       0.161850
 1904 Fit       0.163711
 1905 Fit       0.166266
 1906 Fit       0.169589
 1907 Fit       0.173755
 1908 Fit       0.170399
 1909 Fit       0.166982
 1910 Fit       0.164368
 1911 Fit       0.162474
 1912 Fit       0.161229
 1913 Fit       0.160585
 1914 Fit       0.160514
 1915 Fit       0.161013
 1916 Fit       0.162104
 1917 Fit       0.163830
 1918 Fit       0.166257
 1919 Fit       0.169464
 1920 Fit       0.173543
 1921 Fit       0.172919
 1922 Fit       0.169154
 1923 Fit       0.166263
 1924 Fit       0.164144
 1925 Fit       0.162712
 1926 Fit       0.161904
 1927 Fit       0.161687
 1928 Fit       0.162050
 1929 Fit       0.163009
 1930 Fit       0.164607
 1931 Fit       0.166910
 1932 Fit       0.170009
 1933 Fit       0.174010
 1934 Fit       0.174255
 1935 Fit       0.170455
 1936 Fit       0.167606
 1937 Fit       0.165580
 1938 Fit       0.164282
 1939 Fit       0.163648
 1940 Fit       0.163648
 1941 Fit       0.164282
 1942 Fit       0.165580
 1943 Fit       0.167606
 1944 Fit       0.170455
 1945 Fit       0.174255
 1946 Fit       0.172405
 1947 Fit       0.169527
 1948 Fit       0.167609
 1949 Fit       0.166539
 1950 Fit       0.166252
 1951 Fit       0.166732
 1952 Fit       0.168006
 1953 Fit       0.170151
 1954 Fit       0.173293
 1955 Fit       0.173404
 1956 Fit       0.171191
 1957 Fit       0.170065
 1958 Fit       0.169942
 1959 Fit       0.170812
 1960 Fit       0.172741
 1961 Fit       0.172741
 1962 Fit       0.170812
 1963 Fit       0.169942
 1964 Fit       0.170065
 1965 Fit       0.171191
 1966 Fit       0.173404
 1967 Fit       0.173293
 1968 Fit       0.170151
 1969 Fit       0.168006
 1970 Fit       0.166732
 1971 Fit       0.166252
 1972 Fit       0.166539
 1973 Fit       0.167609
 1974 Fit       0.169527
 1975 Fit       0.172405
 1976 Fit       0.174255
 1977 Fit       0.170455
 1978 Fit       0.167606
 1979 Fit       0.165580
 1980 Fit       0.164282
 1981 Fit       0.163648
 1982 Fit       0.163648
 1983 Fit       0.164282
 1984 Fit       0.165580
 1985 Fit       0.167606
 1986 Fit       0.170455
 1987 Fit       0.174255
 1988 Fit       0.174010
 1989 Fit       0.170009
 1990 Fit       0.166910
 1991 Fit       0.164607
 1992 Fit       0.163009
 1993 Fit       0.162050
 1994 Fit       0.161687
 1995 Fit       0.161904
 1996 Fit       0.162712
 1997 Fit       0.164144
 1998 Fit       0.166263
 1999 Fit       0.169154
 2000 Fit       0.172919
 2001 Fit       0.173543
 2002 Fit       0.169464
 2003 Fit       0.166257
 2004 Fit       0.163830
 2005 Fit       0.162104
 2006 Fit       0.161013
 2007 Fit       0.160514
 2008 Fit       0.160585
 2009 Fit       0.161229
 2010 Fit       0.162474
 2011 Fit       0.164368
 2012 Fit       0.166982
 2013 Fit       0.170399
 2014 Fit       0.173755
 2015 Fit       0.169589
 2016 Fit       0.166266
 2017 Fit       0.163711
 2018 Fit       0.161850
 2019 Fit       0.160623
 2020 Fit       0.159986
 2021 Fit       0.159916
 2022 Fit       0.160409
 2023 Fit       0.161485
 2024 Fit       0.163183
 2025 Fit       0.165559
 2026 Fit       0.168682
 2027 Fit       0.172630
 2028 Fit       0.173212
 2029 Fit       0.168956
 2030 Fit       0.165610
 2031 Fit       0.163092
 2032 Fit       0.161332
 2033 Fit       0.160269
 2034 Fit       0.159867
 2035 Fit       0.160108
 2036 Fit       0.161003
 2037 Fit       0.162584
 2038 Fit       0.164906
 2039 Fit       0.168037
 2040 Fit       0.172058
 2041 Fit       0.173425
 2042 Fit       0.169026
 2043 Fit       0.165609
 2044 Fit       0.163104
 2045 Fit       0.161447
 2046 Fit       0.160587
 2047 Fit       0.160492
 2048 Fit       0.161159
 2049 Fit       0.162613
 2050 Fit       0.164899
 2051 Fit       0.168082
 2052 Fit       0.172229
 2053 Fit       0.173637
 2054 Fit       0.169065
 2055 Fit       0.165598
 2056 Fit       0.163237
 2057 Fit       0.161945
 2058 Fit       0.161688
 2059 Fit       0.162460
 2060 Fit       0.164282
 2061 Fit       0.167192
 2062 Fit       0.171216
 2063 Fit       0.173845
 2064 Fit       0.169015
 2065 Fit       0.165580
 2066 Fit       0.163832
 2067 Fit       0.163832
 2068 Fit       0.165580
 2069 Fit       0.169015
 2070 Fit       0.173845
 2071 Fit       0.174255
 2072 Fit       0.169489
 2073 Fit       0.166595
 2074 Fit       0.167606
 2075 Fit       0.171904
 2076 Fit       0.170455
 2077 Fit       0.174145
 2078 Fit       0.171637
 2079 Fit       0.170250
 2080 Fit       0.169880
 2081 Fit       0.170499
 2082 Fit       0.172153
 2083 Fit       0.174255
 2084 Fit       0.171587
 2085 Fit       0.168963
 2086 Fit       0.167266
 2087 Fit       0.166395
 2088 Fit       0.166300
 2089 Fit       0.166973
 2090 Fit       0.168456
 2091 Fit       0.170837
 2092 Fit       0.170455
 2093 Fit       0.174255
 2094 Fit       0.174255
 2095 Fit       0.170455
 2096 Fit       0.167606
 2097 Fit       0.165580
 2098 Fit       0.164282
 2099 Fit       0.163648
 2100 Fit       0.163648
 2101 Fit       0.164282
 2102 Fit       0.165580
 2103 Fit       0.167606
 2104 Fit       0.167606
 2105 Fit       0.170920
 2106 Fit       0.171890
 2107 Fit       0.168354
 2108 Fit       0.165665
 2109 Fit       0.163725
 2110 Fit       0.162453
 2111 Fit       0.161795
 2112 Fit       0.161723
 2113 Fit       0.162233
 2114 Fit       0.163346
 2115 Fit       0.165113
 2116 Fit       0.165580
 2117 Fit       0.168584
 2118 Fit       0.172437
 2119 Fit       0.171389
 2120 Fit       0.167757
 2121 Fit       0.164951
 2122 Fit       0.162884
 2123 Fit       0.161483
 2124 Fit       0.160692
 2125 Fit       0.160478
 2126 Fit       0.160834
 2127 Fit       0.161774
 2128 Fit       0.163336
 2129 Fit       0.164282
 2130 Fit       0.167022
 2131 Fit       0.170548
 2132 Fit       0.171562
 2133 Fit       0.167827
 2134 Fit       0.164897
 2135 Fit       0.162697
 2136 Fit       0.161160
 2137 Fit       0.160233
 2138 Fit       0.159881
 2139 Fit       0.160092
 2140 Fit       0.160873
 2141 Fit       0.162253
 2142 Fit       0.163648
 2143 Fit       0.166366
 2144 Fit       0.169931
 2145 Fit       0.170965
 2146 Fit       0.167174
 2147 Fit       0.164252
 2148 Fit       0.162121
 2149 Fit       0.160716
 2150 Fit       0.159987
 2151 Fit       0.159907
 2152 Fit       0.160472
 2153 Fit       0.161704
 2154 Fit       0.163648
 2155 Fit       0.166375
 2156 Fit       0.170031
 2157 Fit       0.171098
 2158 Fit       0.167199
 2159 Fit       0.164246
 2160 Fit       0.162173
 2161 Fit       0.160920
 2162 Fit       0.160444
 2163 Fit       0.160729
 2164 Fit       0.161785
 2165 Fit       0.164282
 2166 Fit       0.167192
 2167 Fit       0.171216
 2168 Fit       0.173637
 2169 Fit       0.169065
 2170 Fit       0.165598
 2171 Fit       0.163237
 2172 Fit       0.161945
 2173 Fit       0.161688
 2174 Fit       0.162460
 2175 Fit       0.165580
 2176 Fit       0.169015
 2177 Fit       0.173845
 2178 Fit       0.173845
 2179 Fit       0.169015
 2180 Fit       0.165580
 2181 Fit       0.163832
 2182 Fit       0.163832
 2183 Fit       0.167606
 2184 Fit       0.171904
 2185 Fit       0.174255
 2186 Fit       0.169489
 2187 Fit       0.166595
 2188 Fit       0.170455
 -----------------------------------------------------------------
 Leave Link  602 at Tue Sep 30 16:59:06 2025, MaxMem=  4294967296 cpu:               1.0 elap:               0.1
 (Enter /software/sse/easybuild/prefix/software/Gaussian/16.C.01-avx2-nsc1/g16/l9999.exe)

 Test job not archived.
 1\1\NSC-N1099\FOpt\RMP2-FC\Aug-CC-pVTZ\H4N1(1+)\X_DAVVA\30-Sep-2025\0\
 \#P MP2/aug-cc-pvtz Opt=tight density=MP2 Pop=(MK,Hirshfeld) iop(6/33=
 2) iop(6/42=6) maxdisk=128GB\\ammonium\\1,1\H,-0.5900345696,0.59003456
 96,0.5900345696\N,0.,0.,0.\H,0.5900345696,-0.5900345696,0.5900345696\H
 ,-0.5900345696,-0.5900345696,-0.5900345696\H,0.5900345696,0.5900345696
 ,-0.5900345696\\Version=ES64L-G16RevC.01\State=1-A1\HF=-56.5643598\MP2
 =-56.7961515\RMSD=7.098e-10\RMSF=8.407e-09\Dipole=0.,0.,0.\Quadrupole=
 0.,0.,0.,0.,0.,0.\PG=TD [O(N1),4C3(H1)]\\@


 SUCCESS-- IF YOU HAVE TRIED TO DO SOMETHING AND FAILED
           YOU ARE BETTER OFF THAN IF YOU HAD TRIED TO DO
           NOTHING AND SUCCEEDED.

                   -- FROM THE BACK OF A SUGAR PACKET
 Job cpu time:       0 days  0 hours  2 minutes 48.2 seconds.
 Elapsed time:       0 days  0 hours  0 minutes 12.0 seconds.
 File lengths (MBytes):  RWF=     15 Int=      0 D2E=      0 Chk=      8 Scr=      1
 Normal termination of Gaussian 16 at Tue Sep 30 16:59:06 2025.
