5
ammonium/ammonium.log	Energy:  -35494.9783691
H         -0.58309        0.58309        0.58309
N          0.00000        0.00000        0.00000
H          0.58309       -0.58309        0.58309
H         -0.58309       -0.58309       -0.58309
H          0.58309        0.58309       -0.58309
