1
bromide/bromide.log	Energy: -1614289.2420468
Br         0.00000        0.00000        0.00000
