1
chloride/chloride.log	Energy: -288386.7113218
Cl         0.00000        0.00000        0.00000
