1
fluoride/fluoride.log	Energy:  -62406.3230269
F          0.00000        0.00000        0.00000
