4
formate/formate.log	Energy: -118144.9855910
O          0.00000        1.11548       -0.20564
O         -0.00000       -1.11548       -0.20564
C          0.00000        0.00000        0.31006
H          0.00000       -0.00000        1.42988
