1
lithium-ion/lithium-ion.log	Energy:   -4540.8972154
Li         0.00000        0.00000        0.00000
