1
sodium-ion/sodium-ion.log	Energy: -101453.2327016
Na         0.00000        0.00000        0.00000
