3
water/water.log	Energy:  -47729.1251464
O          0.00000        0.00000        0.11285
H         -0.00000        0.75309       -0.45140
H         -0.00000       -0.75309       -0.45140
