 Entering Gaussian System, Link 0=/software/sse/easybuild/prefix/software/Gaussian/16.C.01-avx2-nsc1/g16/g16.orig
 Input=ammonium.wrap
 Output=ammonium.log
 Initial command:
 /software/sse/easybuild/prefix/software/Gaussian/16.C.01-avx2-nsc1/g16/l1.exe "/scratch/local/Gau-1919655.inp" -scrdir="/scratch/local/"
 Entering Link 1 = /software/sse/easybuild/prefix/software/Gaussian/16.C.01-avx2-nsc1/g16/l1.exe PID=   1919656.
  
 Copyright (c) 1988-2019, Gaussian, Inc.  All Rights Reserved.
  
 This is part of the Gaussian(R) 16 program.  It is based on
 the Gaussian(R) 09 system (copyright 2009, Gaussian, Inc.),
 the Gaussian(R) 03 system (copyright 2003, Gaussian, Inc.),
 the Gaussian(R) 98 system (copyright 1998, Gaussian, Inc.),
 the Gaussian(R) 94 system (copyright 1995, Gaussian, Inc.),
 the Gaussian 92(TM) system (copyright 1992, Gaussian, Inc.),
 the Gaussian 90(TM) system (copyright 1990, Gaussian, Inc.),
 the Gaussian 88(TM) system (copyright 1988, Gaussian, Inc.),
 the Gaussian 86(TM) system (copyright 1986, Carnegie Mellon
 University), and the Gaussian 82(TM) system (copyright 1983,
 Carnegie Mellon University). Gaussian is a federally registered
 trademark of Gaussian, Inc.
  
 This software contains proprietary and confidential information,
 including trade secrets, belonging to Gaussian, Inc.
  
 This software is provided under written license and may be
 used, copied, transmitted, or stored only in accord with that
 written license.
  
 The following legend is applicable only to US Government
 contracts under FAR:
  
                    RESTRICTED RIGHTS LEGEND
  
 Use, reproduction and disclosure by the US Government is
 subject to restrictions as set forth in subparagraphs (a)
 and (c) of the Commercial Computer Software - Restricted
 Rights clause in FAR 52.227-19.
  
 Gaussian, Inc.
 340 Quinnipiac St., Bldg. 40, Wallingford CT 06492
  
  
 ---------------------------------------------------------------
 Warning -- This program may not be used in any manner that
 competes with the business of Gaussian, Inc. or will provide
 assistance to any competitor of Gaussian, Inc.  The licensee
 of this program is prohibited from giving any competitor of
 Gaussian, Inc. access to this program.  By using this program,
 the user acknowledges that Gaussian, Inc. is engaged in the
 business of creating and licensing software in the field of
 computational chemistry and represents and warrants to the
 licensee that it is not a competitor of Gaussian, Inc. and that
 it will not use this program in any manner prohibited above.
 ---------------------------------------------------------------
  

 Cite this work as:
 Gaussian 16, Revision C.01,
 M. J. Frisch, G. W. Trucks, H. B. Schlegel, G. E. Scuseria, 
 M. A. Robb, J. R. Cheeseman, G. Scalmani, V. Barone, 
 G. A. Petersson, H. Nakatsuji, X. Li, M. Caricato, A. V. Marenich, 
 J. Bloino, B. G. Janesko, R. Gomperts, B. Mennucci, H. P. Hratchian, 
 J. V. Ortiz, A. F. Izmaylov, J. L. Sonnenberg, D. Williams-Young, 
 F. Ding, F. Lipparini, F. Egidi, J. Goings, B. Peng, A. Petrone, 
 T. Henderson, D. Ranasinghe, V. G. Zakrzewski, J. Gao, N. Rega, 
 G. Zheng, W. Liang, M. Hada, M. Ehara, K. Toyota, R. Fukuda, 
 J. Hasegawa, M. Ishida, T. Nakajima, Y. Honda, O. Kitao, H. Nakai, 
 T. Vreven, K. Throssell, J. A. Montgomery, Jr., J. E. Peralta, 
 F. Ogliaro, M. J. Bearpark, J. J. Heyd, E. N. Brothers, K. N. Kudin, 
 V. N. Staroverov, T. A. Keith, R. Kobayashi, J. Normand, 
 K. Raghavachari, A. P. Rendell, J. C. Burant, S. S. Iyengar, 
 J. Tomasi, M. Cossi, J. M. Millam, M. Klene, C. Adamo, R. Cammi, 
 J. W. Ochterski, R. L. Martin, K. Morokuma, O. Farkas, 
 J. B. Foresman, and D. J. Fox, Gaussian, Inc., Wallingford CT, 2019.
 
 ******************************************
 Gaussian 16:  ES64L-G16RevC.01  3-Jul-2019
                28-Sep-2025 
 ******************************************
 %mem=12000MB
 %nprocshared=8
 Will use up to    8 processors via shared memory.
 %chk=water19.chk
 ----------------------------------------------------------------------
 #P HF/aug-cc-pvtz Opt=(Redundant, calcall, verytight) symm=(loose,foll
 ow) Pop=(MK,Hirshfeld,ReadRadii) iop(6/33=2) iop(6/42=6) Polar Freq ma
 xdisk=128GB
 ----------------------------------------------------------------------
 1/7=1,10=4,18=20,19=15,38=1/1,3;
 2/9=110,12=2,17=4,18=3,40=1/2;
 3/5=16,6=1,7=10,11=9,25=1,30=1,71=2,140=1/1,2,3;
 4//1;
 5/5=2,38=5,98=1/2;
 8/6=4,10=90,11=11/1;
 11/6=1,8=1,9=11,15=111,16=1/1,2,10;
 10/6=1/2;
 6/7=2,8=2,9=2,10=2,15=8,18=1,20=101,28=1,33=2,42=6,79=1/1,2;
 7/10=1,25=1/1,2,3,16;
 1/7=1,10=4,18=20,19=15/3(3);
 2/9=110,15=5/2;
 7/8=1,9=1,25=1,44=-1/16;
 99//99;
 2/9=110,15=5/2;
 3/5=16,6=1,7=10,11=9,25=1,30=1,71=2,140=1/1,2,3;
 4/5=5,16=3,69=1/1;
 5/5=2,38=5,98=1/2;
 8/6=4,10=90,11=11/1;
 11/6=1,8=1,9=11,15=111,16=1/1,2,10;
 10/6=1/2;
 7/10=1,25=1/1,2,3,16;
 1/7=1,10=4,18=20,19=15/3(-8);
 2/9=110,15=5/2;
 6/7=2,8=2,9=2,10=2,15=8,18=1,19=2,20=101,28=1,33=2,42=6,79=1/1,2;
 7/8=1,9=1,25=1,44=-1/16;
 99//99;
 Leave Link    1 at Sun Sep 28 21:01:54 2025, MaxMem=  1572864000 cpu:               0.5 elap:               0.1
 (Enter /software/sse/easybuild/prefix/software/Gaussian/16.C.01-avx2-nsc1/g16/l101.exe)
 --------
 ammonium
 --------
 Symbolic Z-matrix:
 Charge =  1 Multiplicity = 1
 H                    -0.00004   1.02354   0. 
 N                     0.00002   0.00003   0. 
 H                    -0.96527  -0.34135   0. 
 H                     0.48253  -0.34133  -0.83578 
 H                     0.48253  -0.34133   0.83578 
 
 ITRead=  0  0  0  0  0
 MicOpt= -1 -1 -1 -1 -1
 NAtoms=      5 NQM=        5 NQMF=       0 NMMI=      0 NMMIF=      0
                NMic=       0 NMicF=      0.
                    Isotopes and Nuclear Properties:
 (Nuclear quadrupole moments (NQMom) in fm**2, nuclear magnetic moments (NMagM)
  in nuclear magnetons)

  Atom         1           2           3           4           5
 IAtWgt=           1          14           1           1           1
 AtmWgt=   1.0078250  14.0030740   1.0078250   1.0078250   1.0078250
 NucSpn=           1           2           1           1           1
 AtZEff=  -0.0000000  -0.0000000  -0.0000000  -0.0000000  -0.0000000
 NQMom=    0.0000000   2.0440000   0.0000000   0.0000000   0.0000000
 NMagM=    2.7928460   0.4037610   2.7928460   2.7928460   2.7928460
 AtZNuc=   1.0000000   7.0000000   1.0000000   1.0000000   1.0000000
 Leave Link  101 at Sun Sep 28 21:01:54 2025, MaxMem=  1572864000 cpu:               1.9 elap:               0.2
 (Enter /software/sse/easybuild/prefix/software/Gaussian/16.C.01-avx2-nsc1/g16/l103.exe)

 GradGradGradGradGradGradGradGradGradGradGradGradGradGradGradGradGradGrad
 Berny optimization.
 Initialization pass.
                           ----------------------------
                           !    Initial Parameters    !
                           ! (Angstroms and Degrees)  !
 --------------------------                            --------------------------
 ! Name  Definition              Value          Derivative Info.                !
 --------------------------------------------------------------------------------
 ! R1    R(1,2)                  1.0235         calculate D2E/DX2 analytically  !
 ! R2    R(2,3)                  1.0239         calculate D2E/DX2 analytically  !
 ! R3    R(2,4)                  1.0237         calculate D2E/DX2 analytically  !
 ! R4    R(2,5)                  1.0237         calculate D2E/DX2 analytically  !
 ! A1    A(1,2,3)              109.4732         calculate D2E/DX2 analytically  !
 ! A2    A(1,2,4)              109.4813         calculate D2E/DX2 analytically  !
 ! A3    A(1,2,5)              109.4813         calculate D2E/DX2 analytically  !
 ! A4    A(3,2,4)              109.4632         calculate D2E/DX2 analytically  !
 ! A5    A(3,2,5)              109.4632         calculate D2E/DX2 analytically  !
 ! A6    A(4,2,5)              109.4651         calculate D2E/DX2 analytically  !
 ! D1    D(3,2,5,4)            119.9815         calculate D2E/DX2 analytically  !
 --------------------------------------------------------------------------------
 Trust Radius=3.00D-01 FncErr=1.00D-07 GrdErr=1.00D-07 EigMax=2.50D+02 EigMin=1.00D-04
 Number of steps in this run=     21 maximum allowed number of steps=    100.
 GradGradGradGradGradGradGradGradGradGradGradGradGradGradGradGradGradGrad

 Leave Link  103 at Sun Sep 28 21:01:54 2025, MaxMem=  1572864000 cpu:               0.1 elap:               0.0
 (Enter /software/sse/easybuild/prefix/software/Gaussian/16.C.01-avx2-nsc1/g16/l202.exe)
                          Input orientation:                          
 ---------------------------------------------------------------------
 Center     Atomic      Atomic             Coordinates (Angstroms)
 Number     Number       Type             X           Y           Z
 ---------------------------------------------------------------------
      1          1           0       -0.000041    1.023540    0.000000
      2          7           0        0.000018    0.000033    0.000000
      3          1           0       -0.965266   -0.341347    0.000000
      4          1           0        0.482528   -0.341327   -0.835780
      5          1           0        0.482528   -0.341327    0.835780
 ---------------------------------------------------------------------
                    Distance matrix (angstroms):
                    1          2          3          4          5
     1  H    0.000000
     2  N    1.023507   0.000000
     3  H    1.671698   1.023872   0.000000
     4  H    1.671605   1.023656   1.671717   0.000000
     5  H    1.671605   1.023656   1.671717   1.671560   0.000000
 This structure is nearly, but not quite of a higher symmetry.
 Consider Symm=Loose if the higher symmetry is desired.
 This structure is nearly, but not quite of a higher symmetry.
 Consider Symm=Loose if the higher symmetry is desired.
 Stoichiometry    H4N(1+)
 Framework group  CS[SG(H2N),X(H2)]
 Deg. of freedom     6
 Full point group                 CS      NOp   2
 Largest Abelian subgroup         CS      NOp   2
 Largest concise Abelian subgroup CS      NOp   2
                         Standard orientation:                         
 ---------------------------------------------------------------------
 Center     Atomic      Atomic             Coordinates (Angstroms)
 Number     Number       Type             X           Y           Z
 ---------------------------------------------------------------------
      1          1           0        0.000000    1.023561    0.000000
      2          7           0       -0.000029    0.000054    0.000000
      3          1           0        0.965265   -0.341298    0.000000
      4          1           0       -0.482530   -0.341320    0.835780
      5          1           0       -0.482530   -0.341320   -0.835780
 ---------------------------------------------------------------------
 Rotational constants (GHZ):         179.4623778         179.4454120         179.4394168
 Leave Link  202 at Sun Sep 28 21:01:54 2025, MaxMem=  1572864000 cpu:               0.0 elap:               0.0
 (Enter /software/sse/easybuild/prefix/software/Gaussian/16.C.01-avx2-nsc1/g16/l301.exe)
 Standard basis: Aug-CC-pVTZ (5D, 7F)
 Ernie: Thresh=  0.10000D-02 Tol=  0.10000D-05 Strict=F.
 Ernie:  3 primitive shells out of 74 were deleted.
 There are    98 symmetry adapted cartesian basis functions of A'  symmetry.
 There are    57 symmetry adapted cartesian basis functions of A"  symmetry.
 There are    85 symmetry adapted basis functions of A'  symmetry.
 There are    53 symmetry adapted basis functions of A"  symmetry.
   138 basis functions,   180 primitive gaussians,   155 cartesian basis functions
     5 alpha electrons        5 beta electrons
       nuclear repulsion energy        16.3736767713 Hartrees.
 IExCor=    0 DFT=F Ex=HF Corr=None ExCW=0 ScaHFX=  1.000000
 ScaDFX=  1.000000  1.000000  1.000000  1.000000 ScalE2=  1.000000  1.000000
 IRadAn=      5 IRanWt=     -1 IRanGd=            0 ICorTp=0 IEmpDi=  4
 NAtoms=    5 NActive=    5 NUniq=    4 SFac= 1.56D+00 NAtFMM=   60 NAOKFM=F Big=F
 Integral buffers will be    131072 words long.
 Raffenetti 1 integral format.
 Two-electron integral symmetry is turned on.
 Leave Link  301 at Sun Sep 28 21:01:54 2025, MaxMem=  1572864000 cpu:               0.4 elap:               0.1
 (Enter /software/sse/easybuild/prefix/software/Gaussian/16.C.01-avx2-nsc1/g16/l302.exe)
 NPDir=0 NMtPBC=     1 NCelOv=     1 NCel=       1 NClECP=     1 NCelD=      1
         NCelK=      1 NCelE2=     1 NClLst=     1 CellRange=     0.0.
 One-electron integrals computed using PRISM.
 One-electron integral symmetry used in STVInt
 NBasis=   138 RedAO= T EigKep=  1.00D-04  NBF=    85    53
 NBsUse=   138 1.00D-06 EigRej= -1.00D+00 NBFU=    85    53
 Leave Link  302 at Sun Sep 28 21:01:54 2025, MaxMem=  1572864000 cpu:               0.7 elap:               0.1
 (Enter /software/sse/easybuild/prefix/software/Gaussian/16.C.01-avx2-nsc1/g16/l303.exe)
 DipDrv:  MaxL=1.
 Leave Link  303 at Sun Sep 28 21:01:54 2025, MaxMem=  1572864000 cpu:               0.2 elap:               0.0
 (Enter /software/sse/easybuild/prefix/software/Gaussian/16.C.01-avx2-nsc1/g16/l401.exe)
 ExpMin= 2.53D-02 ExpMax= 1.14D+04 ExpMxC= 3.89D+02 IAcc=3 IRadAn=         5 AccDes= 0.00D+00
 Harris functional with IExCor=  205 and IRadAn=       5 diagonalized for initial guess.
 HarFok:  IExCor=  205 AccDes= 0.00D+00 IRadAn=         5 IDoV= 1 UseB2=F ITyADJ=14
 ICtDFT=  3500011 ScaDFX=  1.000000  1.000000  1.000000  1.000000
 FoFCou: FMM=F IPFlag=           0 FMFlag=      100000 FMFlg1=           0
         NFxFlg=           0 DoJE=T BraDBF=F KetDBF=T FulRan=T
         wScrn=  0.000000 ICntrl=       500 IOpCl=  0 I1Cent=   200000004 NGrid=           0
         NMat0=    1 NMatS0=      1 NMatT0=    0 NMatD0=    1 NMtDS0=    0 NMtDT0=    0
 Petite list used in FoFCou.
 Harris En= -56.7466319384719    
 JPrj=0 DoOrth=F DoCkMO=F.
 Initial guess orbital symmetries:
       Occupied  (A') (A') (A') (A") (A')
       Virtual   (A') (A') (A") (A') (A') (A') (A") (A') (A') (A')
                 (A") (A') (A") (A') (A') (A") (A') (A') (A") (A")
                 (A') (A") (A') (A') (A') (A") (A') (A") (A') (A')
                 (A") (A') (A') (A') (A') (A") (A") (A') (A") (A')
                 (A') (A") (A') (A") (A') (A') (A") (A") (A') (A")
                 (A') (A') (A") (A') (A") (A') (A') (A") (A') (A')
                 (A") (A") (A') (A') (A") (A') (A") (A') (A') (A")
                 (A') (A') (A") (A') (A") (A") (A') (A') (A") (A')
                 (A') (A') (A') (A") (A') (A') (A") (A") (A') (A")
                 (A") (A') (A") (A') (A") (A') (A') (A") (A') (A')
                 (A") (A') (A') (A") (A') (A") (A') (A') (A") (A')
                 (A") (A') (A') (A") (A') (A") (A') (A') (A") (A')
                 (A") (A') (A") (A') (A") (A') (A') (A") (A') (A')
                 (A") (A') (A')
 The electronic state of the initial guess is 1-A'.
 Leave Link  401 at Sun Sep 28 21:01:55 2025, MaxMem=  1572864000 cpu:               1.3 elap:               0.2
 (Enter /software/sse/easybuild/prefix/software/Gaussian/16.C.01-avx2-nsc1/g16/l502.exe)
 Keep R1 ints in memory in symmetry-blocked form, NReq=69106480.
 FoFCou: FMM=F IPFlag=           0 FMFlag=           0 FMFlg1=           0
         NFxFlg=           0 DoJE=F BraDBF=F KetDBF=F FulRan=T
         wScrn=  0.000000 ICntrl=       600 IOpCl=  0 I1Cent=           0 NGrid=           0
         NMat0=    1 NMatS0=   9591 NMatT0=    0 NMatD0=    1 NMtDS0=    0 NMtDT0=    0
 Petite list used in FoFCou.
 Closed shell SCF:
 Using DIIS extrapolation, IDIIS=  1040.
 NGot=  1572864000 LenX=  1549706103 LenY=  1549681637
 Requested convergence on RMS density matrix=1.00D-08 within 128 cycles.
 Requested convergence on MAX density matrix=1.00D-06.
 Requested convergence on             energy=1.00D-06.
 No special actions if energy rises.

 Cycle   1  Pass 1  IDiag  1:
 E= -56.5175546873310    
 DIIS: error= 5.17D-02 at cycle   1 NSaved=   1.
 NSaved= 1 IEnMin= 1 EnMin= -56.5175546873310     IErMin= 1 ErrMin= 5.17D-02
 ErrMax= 5.17D-02  0.00D+00 EMaxC= 1.00D-01 BMatC= 1.27D-01 BMatP= 1.27D-01
 IDIUse=3 WtCom= 4.83D-01 WtEn= 5.17D-01
 Coeff-Com:  0.100D+01
 Coeff-En:   0.100D+01
 Coeff:      0.100D+01
 Gap=     0.805 Goal=   None    Shift=    0.000
 GapD=    0.805 DampG=2.000 DampE=0.500 DampFc=1.0000 IDamp=-1.
 RMSDP=1.17D-03 MaxDP=4.70D-02              OVMax= 6.67D-02

 Cycle   2  Pass 1  IDiag  1:
 E= -56.5561015887519     Delta-E=       -0.038546901421 Rises=F Damp=F
 DIIS: error= 1.24D-02 at cycle   2 NSaved=   2.
 NSaved= 2 IEnMin= 2 EnMin= -56.5561015887519     IErMin= 2 ErrMin= 1.24D-02
 ErrMax= 1.24D-02  0.00D+00 EMaxC= 1.00D-01 BMatC= 1.18D-02 BMatP= 1.27D-01
 IDIUse=3 WtCom= 8.76D-01 WtEn= 1.24D-01
 Coeff-Com:  0.151D+00 0.849D+00
 Coeff-En:   0.000D+00 0.100D+01
 Coeff:      0.132D+00 0.868D+00
 Gap=     0.872 Goal=   None    Shift=    0.000
 RMSDP=4.27D-04 MaxDP=1.70D-02 DE=-3.85D-02 OVMax= 2.93D-02

 Cycle   3  Pass 1  IDiag  1:
 E= -56.5634614756067     Delta-E=       -0.007359886855 Rises=F Damp=F
 DIIS: error= 4.22D-03 at cycle   3 NSaved=   3.
 NSaved= 3 IEnMin= 3 EnMin= -56.5634614756067     IErMin= 3 ErrMin= 4.22D-03
 ErrMax= 4.22D-03  0.00D+00 EMaxC= 1.00D-01 BMatC= 1.03D-03 BMatP= 1.18D-02
 IDIUse=3 WtCom= 9.58D-01 WtEn= 4.22D-02
 Coeff-Com: -0.287D-01 0.193D+00 0.836D+00
 Coeff-En:   0.000D+00 0.000D+00 0.100D+01
 Coeff:     -0.275D-01 0.184D+00 0.843D+00
 Gap=     0.852 Goal=   None    Shift=    0.000
 RMSDP=8.69D-05 MaxDP=2.93D-03 DE=-7.36D-03 OVMax= 7.26D-03

 Cycle   4  Pass 1  IDiag  1:
 E= -56.5642049686730     Delta-E=       -0.000743493066 Rises=F Damp=F
 DIIS: error= 3.46D-04 at cycle   4 NSaved=   4.
 NSaved= 4 IEnMin= 4 EnMin= -56.5642049686730     IErMin= 4 ErrMin= 3.46D-04
 ErrMax= 3.46D-04  0.00D+00 EMaxC= 1.00D-01 BMatC= 4.84D-06 BMatP= 1.03D-03
 IDIUse=3 WtCom= 9.97D-01 WtEn= 3.46D-03
 Coeff-Com:  0.718D-02-0.678D-01-0.236D+00 0.130D+01
 Coeff-En:   0.000D+00 0.000D+00 0.000D+00 0.100D+01
 Coeff:      0.716D-02-0.676D-01-0.235D+00 0.130D+01
 Gap=     0.852 Goal=   None    Shift=    0.000
 RMSDP=1.22D-05 MaxDP=3.49D-04 DE=-7.43D-04 OVMax= 1.07D-03

 Cycle   5  Pass 1  IDiag  1:
 E= -56.5642134270637     Delta-E=       -0.000008458391 Rises=F Damp=F
 DIIS: error= 4.58D-05 at cycle   5 NSaved=   5.
 NSaved= 5 IEnMin= 5 EnMin= -56.5642134270637     IErMin= 5 ErrMin= 4.58D-05
 ErrMax= 4.58D-05  0.00D+00 EMaxC= 1.00D-01 BMatC= 1.13D-07 BMatP= 4.84D-06
 IDIUse=1 WtCom= 1.00D+00 WtEn= 0.00D+00
 Coeff-Com: -0.566D-03 0.656D-02 0.276D-01-0.242D+00 0.121D+01
 Coeff:     -0.566D-03 0.656D-02 0.276D-01-0.242D+00 0.121D+01
 Gap=     0.852 Goal=   None    Shift=    0.000
 RMSDP=1.41D-06 MaxDP=7.22D-05 DE=-8.46D-06 OVMax= 1.53D-04

 Cycle   6  Pass 1  IDiag  1:
 E= -56.5642135874563     Delta-E=       -0.000000160393 Rises=F Damp=F
 DIIS: error= 2.84D-06 at cycle   6 NSaved=   6.
 NSaved= 6 IEnMin= 6 EnMin= -56.5642135874563     IErMin= 6 ErrMin= 2.84D-06
 ErrMax= 2.84D-06  0.00D+00 EMaxC= 1.00D-01 BMatC= 4.38D-10 BMatP= 1.13D-07
 IDIUse=1 WtCom= 1.00D+00 WtEn= 0.00D+00
 Coeff-Com:  0.402D-04-0.653D-03-0.314D-02 0.350D-01-0.240D+00 0.121D+01
 Coeff:      0.402D-04-0.653D-03-0.314D-02 0.350D-01-0.240D+00 0.121D+01
 Gap=     0.852 Goal=   None    Shift=    0.000
 RMSDP=2.52D-07 MaxDP=9.44D-06 DE=-1.60D-07 OVMax= 1.26D-05

 Cycle   7  Pass 1  IDiag  1:
 E= -56.5642135883406     Delta-E=       -0.000000000884 Rises=F Damp=F
 DIIS: error= 1.45D-07 at cycle   7 NSaved=   7.
 NSaved= 7 IEnMin= 7 EnMin= -56.5642135883406     IErMin= 7 ErrMin= 1.45D-07
 ErrMax= 1.45D-07  0.00D+00 EMaxC= 1.00D-01 BMatC= 1.10D-12 BMatP= 4.38D-10
 IDIUse=1 WtCom= 1.00D+00 WtEn= 0.00D+00
 Coeff-Com: -0.134D-05 0.345D-04 0.210D-03-0.260D-02 0.198D-01-0.126D+00
 Coeff-Com:  0.111D+01
 Coeff:     -0.134D-05 0.345D-04 0.210D-03-0.260D-02 0.198D-01-0.126D+00
 Coeff:      0.111D+01
 Gap=     0.852 Goal=   None    Shift=    0.000
 RMSDP=1.57D-08 MaxDP=8.77D-07 DE=-8.84D-10 OVMax= 4.40D-07

 Cycle   8  Pass 1  IDiag  1:
 E= -56.5642135883421     Delta-E=       -0.000000000002 Rises=F Damp=F
 DIIS: error= 9.89D-09 at cycle   8 NSaved=   8.
 NSaved= 8 IEnMin= 8 EnMin= -56.5642135883421     IErMin= 8 ErrMin= 9.89D-09
 ErrMax= 9.89D-09  0.00D+00 EMaxC= 1.00D-01 BMatC= 5.09D-15 BMatP= 1.10D-12
 IDIUse=1 WtCom= 1.00D+00 WtEn= 0.00D+00
 Coeff-Com: -0.530D-07-0.609D-06-0.971D-05 0.132D-03-0.112D-02 0.844D-02
 Coeff-Com: -0.125D+00 0.112D+01
 Coeff:     -0.530D-07-0.609D-06-0.971D-05 0.132D-03-0.112D-02 0.844D-02
 Coeff:     -0.125D+00 0.112D+01
 Gap=     0.852 Goal=   None    Shift=    0.000
 RMSDP=1.29D-09 MaxDP=2.70D-08 DE=-1.51D-12 OVMax= 3.02D-08

 SCF Done:  E(RHF) =  -56.5642135883     A.U. after    8 cycles
            NFock=  8  Conv=0.13D-08     -V/T= 2.0021
 KE= 5.644477064434D+01 PE=-1.613545042962D+02 EE= 3.197184329214D+01
 Leave Link  502 at Sun Sep 28 21:01:56 2025, MaxMem=  1572864000 cpu:               6.7 elap:               1.0
 (Enter /software/sse/easybuild/prefix/software/Gaussian/16.C.01-avx2-nsc1/g16/l801.exe)
 Range of M.O.s used for correlation:     1   138
 NBasis=   138 NAE=     5 NBE=     5 NFC=     0 NFV=     0
 NROrb=    138 NOA=     5 NOB=     5 NVA=   133 NVB=   133

 **** Warning!!: The largest alpha MO coefficient is  0.46456872D+02

 Leave Link  801 at Sun Sep 28 21:01:56 2025, MaxMem=  1572864000 cpu:               0.1 elap:               0.0
 (Enter /software/sse/easybuild/prefix/software/Gaussian/16.C.01-avx2-nsc1/g16/l1101.exe)
 Using compressed storage, NAtomX=     5.
 Will process      6 centers per pass.
 Leave Link 1101 at Sun Sep 28 21:01:56 2025, MaxMem=  1572864000 cpu:               0.8 elap:               0.1
 (Enter /software/sse/easybuild/prefix/software/Gaussian/16.C.01-avx2-nsc1/g16/l1102.exe)
 Symmetrizing basis deriv contribution to polar:
 IMax=3 JMax=2 DiffMx= 0.00D+00
 Leave Link 1102 at Sun Sep 28 21:01:56 2025, MaxMem=  1572864000 cpu:               0.2 elap:               0.0
 (Enter /software/sse/easybuild/prefix/software/Gaussian/16.C.01-avx2-nsc1/g16/l1110.exe)
 Forming Gx(P) for the SCF density, NAtomX=     5.
 Integral derivatives from FoFJK, PRISM(SPDF).
 Do as many integral derivatives as possible in FoFJK.
 G2DrvN: MDV=    1572863349.
 G2DrvN: will do     6 centers at a time, making    1 passes.
 Calling FoFCou, ICntrl=  3107 FMM=F I1Cent=   0 AccDes= 0.00D+00.
 FoFJK:  IHMeth= 1 ICntrl=    3107 DoSepK=F KAlg= 0 I1Cent=           0 FoldK=F
 IRaf=         0 NMat=       1 IRICut=       1 DoRegI=T DoRafI=F ISym2E= 1 IDoP0=0 IntGTp=1.
 FoFCou: FMM=F IPFlag=           0 FMFlag=      100000 FMFlg1=           0
         NFxFlg=           0 DoJE=F BraDBF=F KetDBF=F FulRan=T
         wScrn=  0.000000 ICntrl=      3107 IOpCl=  0 I1Cent=           0 NGrid=           0
         NMat0=    1 NMatS0=      1 NMatT0=    0 NMatD0=    1 NMtDS0=    0 NMtDT0=    0
 Petite list used in FoFCou.
 End of G2Drv F.D. properties file   721 does not exist.
 End of G2Drv F.D. properties file   722 does not exist.
 End of G2Drv F.D. properties file   788 does not exist.
 Leave Link 1110 at Sun Sep 28 21:01:57 2025, MaxMem=  1572864000 cpu:               7.2 elap:               0.9
 (Enter /software/sse/easybuild/prefix/software/Gaussian/16.C.01-avx2-nsc1/g16/l1002.exe)
 Minotr:  Closed shell wavefunction.
          IDoAtm=11111
          Direct CPHF calculation.
          Differentiating once with respect to electric field.
                with respect to dipole field.
          Differentiating once with respect to nuclear coordinates.
          Using symmetry in CPHF.
          Requested convergence is 1.0D-08 RMS, and 1.0D-07 maximum.
          Secondary convergence is 1.0D-12 RMS, and 1.0D-12 maximum.
          NewPWx=T KeepS1=F KeepF1=F KeepIn=T MapXYZ=F SortEE=F KeepMc=T.
 Keep R1 ints in memory in symmetry-blocked form, NReq=69107523.
 FoFCou: FMM=F IPFlag=           0 FMFlag=           0 FMFlg1=           0
         NFxFlg=           0 DoJE=F BraDBF=F KetDBF=F FulRan=T
         wScrn=  0.000000 ICntrl=       600 IOpCl=  0 I1Cent=           0 NGrid=           0
         NMat0=    1 NMatS0=   9591 NMatT0=    0 NMatD0=    1 NMtDS0=    0 NMtDT0=    0
 Petite list used in FoFCou.
          MDV=    1572864000 using IRadAn=       1.
          Solving linear equations simultaneously, MaxMat=       0.
          There are    15 degrees of freedom in the 1st order CPHF.  IDoFFX=4 NUNeed=    15.
     15 vectors produced by pass  0 Test12= 4.43D-15 6.67D-09 XBig12= 1.72D+00 4.53D-01.
 AX will form    15 AO Fock derivatives at one time.
     15 vectors produced by pass  1 Test12= 4.43D-15 6.67D-09 XBig12= 2.38D-02 5.17D-02.
     15 vectors produced by pass  2 Test12= 4.43D-15 6.67D-09 XBig12= 1.50D-04 3.56D-03.
     15 vectors produced by pass  3 Test12= 4.43D-15 6.67D-09 XBig12= 1.07D-06 3.48D-04.
     15 vectors produced by pass  4 Test12= 4.43D-15 6.67D-09 XBig12= 2.78D-09 1.21D-05.
     15 vectors produced by pass  5 Test12= 4.43D-15 6.67D-09 XBig12= 7.23D-12 8.02D-07.
      4 vectors produced by pass  6 Test12= 4.43D-15 6.67D-09 XBig12= 2.38D-14 3.62D-08.
 InvSVY:  IOpt=1 It=  1 EMax= 4.44D-16
 Solved reduced A of dimension    94 with    15 vectors.
 FullF1:  Do perturbations      1 to      15.
 Isotropic polarizability for W=    0.000000        8.91 Bohr**3.
 End of Minotr F.D. properties file   721 does not exist.
 End of Minotr F.D. properties file   722 does not exist.
 End of Minotr F.D. properties file   788 does not exist.
 Leave Link 1002 at Sun Sep 28 21:01:58 2025, MaxMem=  1572864000 cpu:               9.3 elap:               1.2
 (Enter /software/sse/easybuild/prefix/software/Gaussian/16.C.01-avx2-nsc1/g16/l601.exe)
 Copying SCF densities to generalized density rwf, IOpCl= 0 IROHF=0.
 SCF density gives NOpUse=  2 NOpAll=  2.

 **********************************************************************

            Population analysis using the SCF Density.

 **********************************************************************

 Orbital symmetries:
 BldTbl:  Degeneracy threshold= 1.00D-02
       Occupied  (A') (A') (A') (A") (A')
       Virtual   (A') (A') (A') (A") (A') (A') (A") (A') (A') (A")
                 (A') (A') (A") (A') (A') (A") (A") (A') (A") (A')
                 (A') (A') (A") (A') (A') (A") (A') (A') (A") (A')
                 (A") (A') (A') (A") (A') (A") (A') (A") (A') (A')
                 (A') (A") (A') (A") (A') (A') (A") (A") (A') (A")
                 (A') (A') (A") (A') (A") (A') (A') (A") (A') (A')
                 (A") (A") (A') (A') (A") (A') (A") (A') (A') (A")
                 (A') (A') (A") (A') (A") (A") (A') (A') (A") (A')
                 (A') (A') (A') (A') (A") (A') (A") (A') (A") (A")
                 (A") (A') (A") (A') (A') (A") (A') (A") (A') (A')
                 (A") (A') (A') (A") (A') (A") (A') (A') (A") (A')
                 (A") (A') (A") (A') (A') (A") (A') (A') (A") (A')
                 (A") (A') (A") (A') (A") (A') (A') (A") (A') (A')
                 (A") (A') (A')
 The electronic state is 1-A'.
 Alpha  occ. eigenvalues --  -15.93976  -1.54611  -0.99913  -0.99905  -0.99897
 Alpha virt. eigenvalues --   -0.14715  -0.09133  -0.09132  -0.09132  -0.02816
 Alpha virt. eigenvalues --   -0.01795  -0.01794  -0.01793   0.01008   0.01010
 Alpha virt. eigenvalues --    0.01011   0.02094   0.02095   0.14685   0.16597
 Alpha virt. eigenvalues --    0.16597   0.16598   0.18201   0.18201   0.18203
 Alpha virt. eigenvalues --    0.20104   0.22367   0.22371   0.22374   0.32635
 Alpha virt. eigenvalues --    0.32638   0.32639   0.33102   0.33102   0.48663
 Alpha virt. eigenvalues --    0.48667   0.48672   0.59306   0.66203   0.66203
 Alpha virt. eigenvalues --    0.66204   0.67021   0.67023   0.67024   0.72885
 Alpha virt. eigenvalues --    0.74441   0.74445   0.74450   0.82058   0.82058
 Alpha virt. eigenvalues --    0.82398   0.82398   0.82400   0.96015   0.96019
 Alpha virt. eigenvalues --    0.96023   0.99500   0.99502   1.09194   1.09195
 Alpha virt. eigenvalues --    1.09196   1.13437   1.14916   1.14916   1.44758
 Alpha virt. eigenvalues --    1.44759   1.44763   1.52077   1.52080   1.52081
 Alpha virt. eigenvalues --    1.60470   1.60470   1.60473   1.74711   1.74726
 Alpha virt. eigenvalues --    1.74739   1.84294   2.04296   2.04311   2.04318
 Alpha virt. eigenvalues --    2.10762   2.10762   2.14076   2.14085   2.14096
 Alpha virt. eigenvalues --    2.14362   3.23334   3.51072   3.51075   3.51077
 Alpha virt. eigenvalues --    3.58881   3.58882   3.82536   3.82538   3.82545
 Alpha virt. eigenvalues --    3.87941   3.87953   3.87960   4.03198   4.03200
 Alpha virt. eigenvalues --    4.03200   4.11325   4.11330   4.11347   4.16217
 Alpha virt. eigenvalues --    4.16219   4.23751   4.31956   4.31974   4.31988
 Alpha virt. eigenvalues --    4.52116   4.52120   4.52128   4.60250   4.60254
 Alpha virt. eigenvalues --    4.60266   4.66774   4.66785   4.66789   5.05652
 Alpha virt. eigenvalues --    5.30908   5.30911   5.43445   5.43457   5.43477
 Alpha virt. eigenvalues --    5.75841   5.75851   6.11971   6.12026   6.12070
 Alpha virt. eigenvalues --    6.36368   6.78359   6.78392   6.78396   7.39858
 Alpha virt. eigenvalues --    7.39896   7.39906  18.40052
          Condensed to atoms (all electrons):
               1          2          3          4          5
     1  H    0.369387   0.383828   0.000554   0.000537   0.000537
     2  N    0.383828   5.446187   0.383677   0.383760   0.383760
     3  H    0.000554   0.383677   0.369138   0.000576   0.000576
     4  H    0.000537   0.383760   0.000576   0.369280   0.000559
     5  H    0.000537   0.383760   0.000576   0.000559   0.369280
 Mulliken charges:
               1
     1  H    0.245158
     2  N    0.018786
     3  H    0.245479
     4  H    0.245288
     5  H    0.245288
 Sum of Mulliken charges =   1.00000
 Mulliken charges with hydrogens summed into heavy atoms:
               1
     2  N    1.000000
 APT charges:
               1
     1  H    0.314490
     2  N   -0.258081
     3  H    0.314572
     4  H    0.314509
     5  H    0.314509
 Sum of APT charges =   1.00000
 APT charges with hydrogens summed into heavy atoms:
               1
     2  N    1.000000
 DipInt: DoE/N= T F RetVal/Mat= T F Init=T NMatP=  1 IDeriv=0 Min/MaxMlt=  0  4
 Entering OneElI...
 OneElI was handed  1572800212 working-precision words.
 Multipole integrals L=0 to 4 MinM= 0 MaxM= 0.
 Requested accuracy = 0.1000D-12
 ShPair: Thresh= 1.00D-13 NBox=     0 BxSize= 0.00D+00 RnKept= 3.16D+00
         NSMCal=                 1275 NSMKep=                1275
 PrmmSu-InSpLW:  IPartL=    0 NPrtUS=    1 NPrtUL=    1 DoSpLW=F IThBeg=    0 IThEnd=    0 NThAct=    1.
 PrSmSu:  IncTry=   512 NBBP=           1275 NTPThr=   100 NPartT=    1 Incr=          12 LDynOK=F GPUOK=F.
 PrsmSu:  NPrtUS=   1 ThrOK=F IAlg=2 LenDen=           0 ISkipM=0 DoSpLW=F IThBeg=    0 IThEnd=    0.
 Prism:   IPart=     0 DynPar=F LinDyn=F Incr=          12.
 PRISM was handed  1572716601 working-precision words and  1275 shell-pairs
 IPart=  0 NShTot=        1275 NBatch=          36 AvBLen=        35.4
 PrsmSu-ThDecC:  IPartSL=    0    0 NPrtUSL=    1    1 IThBeg=    0 IThEnd=    0 CPU=   -1 GPU=   -1 NThAct=    1.
 PrSmSu:  NxtVal=             13.
 Electronic moments (au):
        -10.00000000          0.00015849         -0.00025630          0.00000000
         -8.17552241         -8.17490628         -8.17484084          0.00011834
          0.00000000         -0.00000000         -2.41343357         -3.40940041
          0.00000000         -0.00007587          1.70604370         -0.00000000
          2.41142801          1.70579242          0.00000000         -0.00000000
        -28.18102235        -29.04307569        -28.17387658          1.23397760
          0.00000000          0.00061815         -0.00000000          0.00000000
         -0.00000000         -8.52089054         -9.39196119         -8.52010905
          0.00000000          0.00000000         -1.23252427
 Electronic spatial extent (au):  <R**2>=             24.5253
 DipInt: DoE/N= F T RetVal/Mat= T F Init=T NMatP=  1 IDeriv=0 Min/MaxMlt=  0  4
 Nuclear    moments (au):
         11.00000000          0.00000000          0.00000000          0.00000000
          4.99022514          4.98934739          4.98898118         -0.00017290
         -0.00000000          0.00000000          4.55291547          6.43168162
          0.00000000          0.00006133         -3.21856323          0.00000000
         -4.54919569         -3.21790276          0.00000000          0.00000000
         12.45353159         14.51666369         12.44496660         -2.93638072
         -0.00000000         -0.00000720          0.00000000         -0.00000000
          0.00000000          2.07588816          4.14817790          2.07555367
         -0.00000000         -0.00000000          2.93424025
 Total      moments (au):
          1.00000000          0.00015849         -0.00025630          0.00000000
         -3.18529727         -3.18555889         -3.18585966         -0.00005456
         -0.00000000         -0.00000000          2.13948190          3.02228121
          0.00000000         -0.00001454         -1.51251953          0.00000000
         -2.13776768         -1.51211034          0.00000000          0.00000000
        -15.72749076        -14.52641200        -15.72890997         -1.70240312
         -0.00000000          0.00061095         -0.00000000          0.00000000
         -0.00000000         -6.44500237         -5.24378329         -6.44455539
         -0.00000000          0.00000000          1.70171598
 Charge=              1.0000 electrons
 Dipole moment (field-independent basis, Debye):
    X=              0.0004    Y=             -0.0007    Z=              0.0000  Tot=              0.0008
 Quadrupole moment (field-independent basis, Debye-Ang):
   XX=             -4.2843   YY=             -4.2847   ZZ=             -4.2851
   XY=             -0.0001   XZ=             -0.0000   YZ=             -0.0000
 Traceless Quadrupole moment (field-independent basis, Debye-Ang):
   XX=              0.0004   YY=              0.0000   ZZ=             -0.0004
   XY=             -0.0001   XZ=             -0.0000   YZ=             -0.0000
 Octapole moment (field-independent basis, Debye-Ang**2):
  XXX=              1.5228  YYY=              2.1511  ZZZ=              0.0000  XYY=             -0.0000
  XXY=             -1.0766  XXZ=              0.0000  XZZ=             -1.5216  YZZ=             -1.0763
  YYZ=              0.0000  XYZ=              0.0000
 Hexadecapole moment (field-independent basis, Debye-Ang**3):
 XXXX=             -5.9237 YYYY=             -5.4713 ZZZZ=             -5.9243 XXXY=             -0.6412
 XXXZ=             -0.0000 YYYX=              0.0002 YYYZ=             -0.0000 ZZZX=              0.0000
 ZZZY=             -0.0000 XXYY=             -2.4275 XXZZ=             -1.9751 YYZZ=             -2.4273
 XXYZ=             -0.0000 YYXZ=              0.0000 ZZXY=              0.6409
 N-N= 1.637367677134D+01 E-N=-1.613545040769D+02  KE= 5.644477064434D+01
 Symmetry A'   KE= 5.360939730758D+01
 Symmetry A"   KE= 2.835373336758D+00
 SetAtRh:  ITypeU=  23 NETotI=      -1 ICharg=  0 NETot=      11.
 StAtR1:  I=    1 I1=    1 IA=  1 C=   1.0 OKShel=T
                                                  S
                                                  1
 StAtR1:  I=    2 I1=    2 IA=  7 C=   7.0 OKShel=TTT
                                                  SSP
                                                  223
 StAtR1:  I=    3 I1=    3 IA=  1 C=   1.0 OKShel=T
                                                  S
                                                  1
 StAtR1:  I=    4 I1=    4 IA=  1 C=   1.0 OKShel=T
                                                  S
                                                  1
 StAtR1:  I=    5 I1=    5 IA=  1 C=   1.0 OKShel=T
                                                  S
                                                  1
          I=    1 IA=  1 I1=    1 NAtG=20 NE=   1.000 C=   1.000 Err= 2.80D-12
          I=    2 IA=  7 I1=    2 NAtG=22 NE=   7.000 C=   7.000 Err= 6.08D-13
          I=    3 IA=  1 I1=    3 NAtG=20 NE=   1.000 C=   1.000 Err= 2.80D-12
          I=    4 IA=  1 I1=    4 NAtG=20 NE=   1.000 C=   1.000 Err= 2.80D-12
          I=    5 IA=  1 I1=    5 NAtG=20 NE=   1.000 C=   1.000 Err= 2.80D-12
 Pruned (  99, 590) grid will be used in numerical quadrature.
 IPart=  0 IRanGd=          0 ScrnBf=T ScrnGd=T RCrit=4.00D+00 DoMicB=T.
 CutRad = 1000.00    CtRdIn =    0.00    XCrit =  15.00   ICut = 0
 Pruned (  99, 590) grid will be used in numerical quadrature.
 IPart=  0 Atom number   1 atomic number  1 has       23164 grid points.
 IPart=  0 Atom   1 batch    1 overlaps    5 atoms,    50 shells and     5 DB shells.   NGrid=      2838
 Symmetry reduced    86 angular points to    86 for atom    1.
 Pruned (  99, 590) grid will be used in numerical quadrature.
 Pruned (  99, 590) grid will be used in numerical quadrature.
 IPart=  5 IRanGd=          0 ScrnBf=T ScrnGd=T RCrit=4.00D+00 DoMicB=T.
 Pruned (  99, 590) grid will be used in numerical quadrature.
 IPart=  1 IRanGd=          0 ScrnBf=T ScrnGd=T RCrit=4.00D+00 DoMicB=T.
 Pruned (  99, 590) grid will be used in numerical quadrature.
 IPart=  4 IRanGd=          0 ScrnBf=T ScrnGd=T RCrit=4.00D+00 DoMicB=T.
 CutRad = 1000.00    CtRdIn =    0.00    XCrit =  15.00   ICut = 0
 CutRad = 1000.00    CtRdIn =    0.00    XCrit =  15.00   ICut = 0
 IPart=  2 IRanGd=          0 ScrnBf=T ScrnGd=T RCrit=4.00D+00 DoMicB=T.
 CutRad = 1000.00    CtRdIn =    0.00    XCrit =  15.00   ICut = 0
 Pruned (  99, 590) grid will be used in numerical quadrature.
 Pruned (  99, 590) grid will be used in numerical quadrature.
 Pruned (  99, 590) grid will be used in numerical quadrature.
 Pruned (  99, 590) grid will be used in numerical quadrature.
 IPart=  7 IRanGd=          0 ScrnBf=T ScrnGd=T RCrit=4.00D+00 DoMicB=T.
 CutRad = 1000.00    CtRdIn =    0.00    XCrit =  15.00   ICut = 0
 IPart=  1 Atom number   1 atomic number  1 has       23164 grid points.
 CutRad = 1000.00    CtRdIn =    0.00    XCrit =  15.00   ICut = 0
 IPart=  1 Atom   1 batch    3 overlaps    5 atoms,    50 shells and     5 DB shells.   NGrid=      2416
 Pruned (  99, 590) grid will be used in numerical quadrature.
 Symmetry reduced   302 angular points to   302 for atom    1.
 Pruned (  99, 590) grid will be used in numerical quadrature.
 Pruned (  99, 590) grid will be used in numerical quadrature.
 IPart=  7 Atom number   1 atomic number  1 has       23164 grid points.
 Pruned (  99, 590) grid will be used in numerical quadrature.
 IPart=  6 IRanGd=          0 ScrnBf=T ScrnGd=T RCrit=4.00D+00 DoMicB=T.
 IPart=  7 Atom   1 batch    5 overlaps    5 atoms,    50 shells and     5 DB shells.   NGrid=      1180
 CutRad = 1000.00    CtRdIn =    0.00    XCrit =  15.00   ICut = 0
 IPart=  2 Atom number   1 atomic number  1 has       23164 grid points.
 Symmetry reduced   590 angular points to   590 for atom    1.
 IPart=  2 Atom   1 batch    4 overlaps    5 atoms,    50 shells and     5 DB shells.   NGrid=      1180
 IPart=  5 Atom number   1 atomic number  1 has       23164 grid points.
 Symmetry reduced   590 angular points to   590 for atom    1.
 IPart=  5 Atom   1 batch    6 overlaps    5 atoms,    50 shells and     5 DB shells.   NGrid=      1180
 IPart=  4 Atom number   1 atomic number  1 has       23164 grid points.
 Pruned (  99, 590) grid will be used in numerical quadrature.
 IPart=  4 Atom   1 batch    2 overlaps    5 atoms,    50 shells and     5 DB shells.   NGrid=      1552
 IPart=  3 IRanGd=          0 ScrnBf=T ScrnGd=T RCrit=4.00D+00 DoMicB=T.
 Symmetry reduced   590 angular points to   590 for atom    1.
 CutRad = 1000.00    CtRdIn =    0.00    XCrit =  15.00   ICut = 0
 Symmetry reduced   194 angular points to   194 for atom    1.
 IPart=  6 Atom number   1 atomic number  1 has       23164 grid points.
 IPart=  6 Atom   1 batch    7 overlaps    5 atoms,    50 shells and     5 DB shells.   NGrid=      1180
 Symmetry reduced   590 angular points to   590 for atom    1.
 Pruned (  99, 590) grid will be used in numerical quadrature.
 IPart=  3 Atom number   1 atomic number  1 has       23164 grid points.
 IPart=  3 Atom   1 batch    8 overlaps    5 atoms,    50 shells and     5 DB shells.   NGrid=      1180
 Symmetry reduced   590 angular points to   590 for atom    1.
 IPart=  7 Atom   1 batch    9 overlaps    5 atoms,    50 shells and     5 DB shells.   NGrid=      1180
 IPart=  2 Atom   1 batch   11 overlaps    5 atoms,    50 shells and     5 DB shells.   NGrid=      1180
 IPart=  5 Atom   1 batch   10 overlaps    5 atoms,    50 shells and     5 DB shells.   NGrid=      1180
 IPart=  6 Atom   1 batch   12 overlaps    5 atoms,    50 shells and     5 DB shells.   NGrid=      1180
 IPart=  3 Atom   1 batch   13 overlaps    5 atoms,    50 shells and     5 DB shells.   NGrid=       604
 Symmetry reduced   302 angular points to   302 for atom    1.
 IPart=  4 Atom   1 batch   14 overlaps    5 atoms,    49 shells and     5 DB shells.   NGrid=       604
 Symmetry reduced   302 angular points to   302 for atom    1.
 IPart=  3 Atom   1 batch   15 overlaps    5 atoms,    46 shells and     5 DB shells.   NGrid=       604
 IPart=  4 Atom   1 batch   16 overlaps    5 atoms,    43 shells and     5 DB shells.   NGrid=       604
 IPart=  6 Atom   1 batch   17 overlaps    5 atoms,    33 shells and     5 DB shells.   NGrid=       604
 IPart=  2 Atom   1 batch   18 overlaps    5 atoms,    28 shells and     5 DB shells.   NGrid=       604
 Symmetry reduced   302 angular points to   302 for atom    1.
 IPart=  1 Atom   1 batch   19 overlaps    5 atoms,    20 shells and     4 DB shells.   NGrid=       604
 Symmetry reduced   302 angular points to   302 for atom    1.
 IPart=  7 Atom   1 batch   20 overlaps    5 atoms,    12 shells and     0 DB shells.   NGrid=       604
 Symmetry reduced   302 angular points to   302 for atom    1.
 IPart=  3 Atom   1 batch   21 overlaps    5 atoms,     5 shells and     0 DB shells.   NGrid=       604
 IPart=  5 Atom   1 batch   22 overlaps    5 atoms,     3 shells and     0 DB shells.   NGrid=       302
 Symmetry reduced   302 angular points to   302 for atom    1.
 Pruned (  99, 590) grid will be used in numerical quadrature.
 IPart=  1 Atom number   2 atomic number  7 has       23416 grid points.
 IPart=  1 Atom   2 batch    1 overlaps    5 atoms,    50 shells and     5 DB shells.   NGrid=      2408
 Pruned (  99, 590) grid will be used in numerical quadrature.
 Symmetry reduced    86 angular points to    86 for atom    2.
 IPart=  7 Atom number   2 atomic number  7 has       23416 grid points.
 IPart=  7 Atom   2 batch    2 overlaps    5 atoms,    50 shells and     5 DB shells.   NGrid=      2522
 Pruned (  99, 590) grid will be used in numerical quadrature.
 Symmetry reduced   194 angular points to   194 for atom    2.
 IPart=  5 Atom number   2 atomic number  7 has       23416 grid points.
 IPart=  5 Atom   2 batch    3 overlaps    5 atoms,    50 shells and     5 DB shells.   NGrid=      2114
 Symmetry reduced   302 angular points to   302 for atom    2.
 Pruned (  99, 590) grid will be used in numerical quadrature.
 IPart=  0 Atom number   2 atomic number  7 has       23416 grid points.
 IPart=  0 Atom   2 batch    4 overlaps    5 atoms,    50 shells and     5 DB shells.   NGrid=      1180
 Pruned (  99, 590) grid will be used in numerical quadrature.
 Symmetry reduced   590 angular points to   590 for atom    2.
 IPart=  3 Atom number   2 atomic number  7 has       23416 grid points.
 Pruned (  99, 590) grid will be used in numerical quadrature.
 IPart=  3 Atom   2 batch    5 overlaps    5 atoms,    50 shells and     5 DB shells.   NGrid=      1180
 IPart=  2 Atom number   2 atomic number  7 has       23416 grid points.
 Symmetry reduced   590 angular points to   590 for atom    2.
 IPart=  2 Atom   2 batch    6 overlaps    5 atoms,    50 shells and     5 DB shells.   NGrid=      1180
 Pruned (  99, 590) grid will be used in numerical quadrature.
 Symmetry reduced   590 angular points to   590 for atom    2.
 IPart=  4 Atom number   2 atomic number  7 has       23416 grid points.
 IPart=  4 Atom   2 batch    7 overlaps    5 atoms,    50 shells and     5 DB shells.   NGrid=      1180
 Symmetry reduced   590 angular points to   590 for atom    2.
 Pruned (  99, 590) grid will be used in numerical quadrature.
 IPart=  6 Atom number   2 atomic number  7 has       23416 grid points.
 IPart=  6 Atom   2 batch    8 overlaps    5 atoms,    50 shells and     5 DB shells.   NGrid=      1180
 Symmetry reduced   590 angular points to   590 for atom    2.
 IPart=  0 Atom   2 batch    9 overlaps    5 atoms,    50 shells and     5 DB shells.   NGrid=      1180
 IPart=  2 Atom   2 batch   10 overlaps    5 atoms,    50 shells and     5 DB shells.   NGrid=      1180
 IPart=  3 Atom   2 batch   11 overlaps    5 atoms,    50 shells and     5 DB shells.   NGrid=      1180
 IPart=  4 Atom   2 batch   12 overlaps    5 atoms,    49 shells and     5 DB shells.   NGrid=       590
 IPart=  6 Atom   2 batch   13 overlaps    5 atoms,    49 shells and     5 DB shells.   NGrid=       604
 Symmetry reduced   302 angular points to   302 for atom    2.
 IPart=  4 Atom   2 batch   14 overlaps    5 atoms,    49 shells and     5 DB shells.   NGrid=       604
 Symmetry reduced   302 angular points to   302 for atom    2.
 IPart=  6 Atom   2 batch   15 overlaps    5 atoms,    47 shells and     5 DB shells.   NGrid=       604
 IPart=  5 Atom   2 batch   16 overlaps    5 atoms,    45 shells and     5 DB shells.   NGrid=       604
 IPart=  1 Atom   2 batch   17 overlaps    5 atoms,    37 shells and     5 DB shells.   NGrid=       604
 Symmetry reduced   302 angular points to   302 for atom    2.
 IPart=  0 Atom   2 batch   18 overlaps    5 atoms,    30 shells and     5 DB shells.   NGrid=       604
 IPart=  3 Atom   2 batch   19 overlaps    5 atoms,    21 shells and     5 DB shells.   NGrid=       604
 Symmetry reduced   302 angular points to   302 for atom    2.
 Symmetry reduced   302 angular points to   302 for atom    2.
 IPart=  2 Atom   2 batch   20 overlaps    5 atoms,    14 shells and     4 DB shells.   NGrid=       604
 Symmetry reduced   302 angular points to   302 for atom    2.
 IPart=  7 Atom   2 batch   21 overlaps    5 atoms,     6 shells and     0 DB shells.   NGrid=       604
 Symmetry reduced   302 angular points to   302 for atom    2.
 IPart=  4 Atom   2 batch   22 overlaps    5 atoms,     4 shells and     0 DB shells.   NGrid=       604
 IPart=  2 Atom   2 batch   23 overlaps    5 atoms,     0 shells and     0 DB shells.   NGrid=       302
 Pruned (  99, 590) grid will be used in numerical quadrature.
 IPart=  2 Atom number   3 atomic number  1 has       23164 grid points.
 IPart=  2 Atom   3 batch    1 overlaps    5 atoms,    50 shells and     5 DB shells.   NGrid=      2838
 Symmetry reduced    86 angular points to    86 for atom    3.
 Pruned (  99, 590) grid will be used in numerical quadrature.
 IPart=  3 Atom number   3 atomic number  1 has       23164 grid points.
 IPart=  3 Atom   3 batch    2 overlaps    5 atoms,    50 shells and     5 DB shells.   NGrid=      1552
 Symmetry reduced   194 angular points to   194 for atom    3.
 Pruned (  99, 590) grid will be used in numerical quadrature.
 IPart=  7 Atom number   3 atomic number  1 has       23164 grid points.
 IPart=  7 Atom   3 batch    3 overlaps    5 atoms,    50 shells and     5 DB shells.   NGrid=      2416
 Symmetry reduced   302 angular points to   302 for atom    3.
 Pruned (  99, 590) grid will be used in numerical quadrature.
 Pruned (  99, 590) grid will be used in numerical quadrature.
 IPart=  5 Atom number   3 atomic number  1 has       23164 grid points.
 IPart=  6 Atom number   3 atomic number  1 has       23164 grid points.
 IPart=  5 Atom   3 batch    4 overlaps    5 atoms,    50 shells and     5 DB shells.   NGrid=      1180
 IPart=  6 Atom   3 batch    5 overlaps    5 atoms,    50 shells and     5 DB shells.   NGrid=      1180
 Symmetry reduced   590 angular points to   590 for atom    3.
 Symmetry reduced   590 angular points to   590 for atom    3.
 Pruned (  99, 590) grid will be used in numerical quadrature.
 IPart=  4 Atom number   3 atomic number  1 has       23164 grid points.
 IPart=  4 Atom   3 batch    6 overlaps    5 atoms,    50 shells and     5 DB shells.   NGrid=      1180
 Symmetry reduced   590 angular points to   590 for atom    3.
 Pruned (  99, 590) grid will be used in numerical quadrature.
 IPart=  1 Atom number   3 atomic number  1 has       23164 grid points.
 IPart=  1 Atom   3 batch    7 overlaps    5 atoms,    50 shells and     5 DB shells.   NGrid=      1180
 Symmetry reduced   590 angular points to   590 for atom    3.
 Pruned (  99, 590) grid will be used in numerical quadrature.
 IPart=  0 Atom number   3 atomic number  1 has       23164 grid points.
 IPart=  0 Atom   3 batch    8 overlaps    5 atoms,    50 shells and     5 DB shells.   NGrid=      1180
 Symmetry reduced   590 angular points to   590 for atom    3.
 IPart=  5 Atom   3 batch    9 overlaps    5 atoms,    50 shells and     5 DB shells.   NGrid=      1180
 IPart=  6 Atom   3 batch   10 overlaps    5 atoms,    50 shells and     5 DB shells.   NGrid=      1180
 IPart=  4 Atom   3 batch   11 overlaps    5 atoms,    50 shells and     5 DB shells.   NGrid=      1180
 IPart=  1 Atom   3 batch   12 overlaps    5 atoms,    50 shells and     5 DB shells.   NGrid=      1180
 IPart=  0 Atom   3 batch   13 overlaps    5 atoms,    50 shells and     5 DB shells.   NGrid=       604
 Symmetry reduced   302 angular points to   302 for atom    3.
 IPart=  3 Atom   3 batch   14 overlaps    5 atoms,    49 shells and     5 DB shells.   NGrid=       604
 Symmetry reduced   302 angular points to   302 for atom    3.
 IPart=  0 Atom   3 batch   15 overlaps    5 atoms,    46 shells and     5 DB shells.   NGrid=       604
 IPart=  3 Atom   3 batch   16 overlaps    5 atoms,    43 shells and     5 DB shells.   NGrid=       604
 IPart=  7 Atom   3 batch   17 overlaps    5 atoms,    33 shells and     5 DB shells.   NGrid=       604
 IPart=  5 Atom   3 batch   18 overlaps    5 atoms,    28 shells and     5 DB shells.   NGrid=       604
 IPart=  1 Atom   3 batch   19 overlaps    5 atoms,    20 shells and     4 DB shells.   NGrid=       604
 Symmetry reduced   302 angular points to   302 for atom    3.
 Symmetry reduced   302 angular points to   302 for atom    3.
 IPart=  4 Atom   3 batch   20 overlaps    5 atoms,    12 shells and     0 DB shells.   NGrid=       604
 Symmetry reduced   302 angular points to   302 for atom    3.
 IPart=  6 Atom   3 batch   21 overlaps    5 atoms,     5 shells and     0 DB shells.   NGrid=       604
 Symmetry reduced   302 angular points to   302 for atom    3.
 IPart=  1 Atom   3 batch   22 overlaps    5 atoms,     3 shells and     0 DB shells.   NGrid=       302
 Pruned (  99, 590) grid will be used in numerical quadrature.
 IPart=  0 Atom number   4 atomic number  1 has       23164 grid points.
 IPart=  0 Atom   4 batch    1 overlaps    5 atoms,    50 shells and     5 DB shells.   NGrid=      2838
 Symmetry reduced    86 angular points to    86 for atom    4.
 Pruned (  99, 590) grid will be used in numerical quadrature.
 IPart=  4 Atom number   4 atomic number  1 has       23164 grid points.
 IPart=  4 Atom   4 batch    2 overlaps    5 atoms,    50 shells and     5 DB shells.   NGrid=      1552
 Symmetry reduced   194 angular points to   194 for atom    4.
 Pruned (  99, 590) grid will be used in numerical quadrature.
 IPart=  3 Atom number   4 atomic number  1 has       23164 grid points.
 IPart=  3 Atom   4 batch    3 overlaps    5 atoms,    50 shells and     5 DB shells.   NGrid=      2416
 Symmetry reduced   302 angular points to   302 for atom    4.
 Pruned (  99, 590) grid will be used in numerical quadrature.
 Pruned (  99, 590) grid will be used in numerical quadrature.
 IPart=  5 Atom number   4 atomic number  1 has       23164 grid points.
 IPart=  1 Atom number   4 atomic number  1 has       23164 grid points.
 IPart=  5 Atom   4 batch    4 overlaps    5 atoms,    50 shells and     5 DB shells.   NGrid=      1180
 Pruned (  99, 590) grid will be used in numerical quadrature.
 Symmetry reduced   590 angular points to   590 for atom    4.
 IPart=  2 Atom number   4 atomic number  1 has       23164 grid points.
 IPart=  2 Atom   4 batch    6 overlaps    5 atoms,    50 shells and     5 DB shells.   NGrid=      1180
 IPart=  1 Atom   4 batch    5 overlaps    5 atoms,    50 shells and     5 DB shells.   NGrid=      1180
 Symmetry reduced   590 angular points to   590 for atom    4.
 Symmetry reduced   590 angular points to   590 for atom    4.
 Pruned (  99, 590) grid will be used in numerical quadrature.
 IPart=  6 Atom number   4 atomic number  1 has       23164 grid points.
 IPart=  6 Atom   4 batch    7 overlaps    5 atoms,    50 shells and     5 DB shells.   NGrid=      1180
 Symmetry reduced   590 angular points to   590 for atom    4.
 Pruned (  99, 590) grid will be used in numerical quadrature.
 IPart=  7 Atom number   4 atomic number  1 has       23164 grid points.
 IPart=  7 Atom   4 batch    8 overlaps    5 atoms,    50 shells and     5 DB shells.   NGrid=      1180
 Symmetry reduced   590 angular points to   590 for atom    4.
 IPart=  5 Atom   4 batch    9 overlaps    5 atoms,    50 shells and     5 DB shells.   NGrid=      1180
 IPart=  2 Atom   4 batch   10 overlaps    5 atoms,    50 shells and     5 DB shells.   NGrid=      1180
 IPart=  1 Atom   4 batch   11 overlaps    5 atoms,    50 shells and     5 DB shells.   NGrid=      1180
 IPart=  6 Atom   4 batch   12 overlaps    5 atoms,    50 shells and     5 DB shells.   NGrid=      1180
 IPart=  7 Atom   4 batch   13 overlaps    5 atoms,    50 shells and     5 DB shells.   NGrid=       604
 Symmetry reduced   302 angular points to   302 for atom    4.
 IPart=  4 Atom   4 batch   14 overlaps    5 atoms,    49 shells and     5 DB shells.   NGrid=       604
 Symmetry reduced   302 angular points to   302 for atom    4.
 IPart=  7 Atom   4 batch   15 overlaps    5 atoms,    46 shells and     5 DB shells.   NGrid=       604
 IPart=  4 Atom   4 batch   16 overlaps    5 atoms,    43 shells and     5 DB shells.   NGrid=       604
 IPart=  6 Atom   4 batch   17 overlaps    5 atoms,    33 shells and     5 DB shells.   NGrid=       604
 IPart=  1 Atom   4 batch   18 overlaps    5 atoms,    28 shells and     5 DB shells.   NGrid=       604
 Symmetry reduced   302 angular points to   302 for atom    4.
 Symmetry reduced   302 angular points to   302 for atom    4.
 IPart=  3 Atom   4 batch   19 overlaps    5 atoms,    20 shells and     4 DB shells.   NGrid=       604
 IPart=  5 Atom   4 batch   20 overlaps    5 atoms,    12 shells and     0 DB shells.   NGrid=       604
 Symmetry reduced   302 angular points to   302 for atom    4.
 IPart=  2 Atom   4 batch   21 overlaps    5 atoms,     5 shells and     0 DB shells.   NGrid=       604
 Symmetry reduced   302 angular points to   302 for atom    4.
 IPart=  3 Atom   4 batch   22 overlaps    5 atoms,     3 shells and     0 DB shells.   NGrid=       302
 Pruned (  99, 590) grid will be used in numerical quadrature.
 IPart=  5 Atom number   5 atomic number  1 has       23164 grid points.
 IPart=  5 Atom   5 batch    1 overlaps    5 atoms,    50 shells and     5 DB shells.   NGrid=      2838
 Symmetry reduced    86 angular points to    86 for atom    5.
 Pruned (  99, 590) grid will be used in numerical quadrature.
 IPart=  7 Atom number   5 atomic number  1 has       23164 grid points.
 IPart=  7 Atom   5 batch    2 overlaps    5 atoms,    50 shells and     5 DB shells.   NGrid=      1552
 Symmetry reduced   194 angular points to   194 for atom    5.
 Pruned (  99, 590) grid will be used in numerical quadrature.
 IPart=  4 Atom number   5 atomic number  1 has       23164 grid points.
 IPart=  4 Atom   5 batch    3 overlaps    5 atoms,    50 shells and     5 DB shells.   NGrid=      2416
 Symmetry reduced   302 angular points to   302 for atom    5.
 Pruned (  99, 590) grid will be used in numerical quadrature.
 Pruned (  99, 590) grid will be used in numerical quadrature.
 IPart=  1 Atom number   5 atomic number  1 has       23164 grid points.
 IPart=  3 Atom number   5 atomic number  1 has       23164 grid points.
 IPart=  1 Atom   5 batch    4 overlaps    5 atoms,    50 shells and     5 DB shells.   NGrid=      1180
 IPart=  3 Atom   5 batch    5 overlaps    5 atoms,    50 shells and     5 DB shells.   NGrid=      1180
 Symmetry reduced   590 angular points to   590 for atom    5.
 Symmetry reduced   590 angular points to   590 for atom    5.
 Pruned (  99, 590) grid will be used in numerical quadrature.
 IPart=  2 Atom number   5 atomic number  1 has       23164 grid points.
 IPart=  2 Atom   5 batch    6 overlaps    5 atoms,    50 shells and     5 DB shells.   NGrid=      1180
 Symmetry reduced   590 angular points to   590 for atom    5.
 Pruned (  99, 590) grid will be used in numerical quadrature.
 IPart=  0 Atom number   5 atomic number  1 has       23164 grid points.
 IPart=  0 Atom   5 batch    7 overlaps    5 atoms,    50 shells and     5 DB shells.   NGrid=      1180
 Symmetry reduced   590 angular points to   590 for atom    5.
 Pruned (  99, 590) grid will be used in numerical quadrature.
 IPart=  6 Atom number   5 atomic number  1 has       23164 grid points.
 IPart=  6 Atom   5 batch    8 overlaps    5 atoms,    50 shells and     5 DB shells.   NGrid=      1180
 Symmetry reduced   590 angular points to   590 for atom    5.
 IPart=  3 Atom   5 batch    9 overlaps    5 atoms,    50 shells and     5 DB shells.   NGrid=      1180
 IPart=  1 Atom   5 batch   10 overlaps    5 atoms,    50 shells and     5 DB shells.   NGrid=      1180
 IPart=  2 Atom   5 batch   11 overlaps    5 atoms,    50 shells and     5 DB shells.   NGrid=      1180
 IPart=  0 Atom   5 batch   12 overlaps    5 atoms,    50 shells and     5 DB shells.   NGrid=      1180
 IPart=  6 Atom   5 batch   13 overlaps    5 atoms,    50 shells and     5 DB shells.   NGrid=       604
 Symmetry reduced   302 angular points to   302 for atom    5.
 IPart=  7 Atom   5 batch   14 overlaps    5 atoms,    49 shells and     5 DB shells.   NGrid=       604
 Symmetry reduced   302 angular points to   302 for atom    5.
 IPart=  6 Atom   5 batch   15 overlaps    5 atoms,    46 shells and     5 DB shells.   NGrid=       604
 IPart=  7 Atom   5 batch   16 overlaps    5 atoms,    43 shells and     5 DB shells.   NGrid=       604
 IPart=  0 Atom   5 batch   17 overlaps    5 atoms,    33 shells and     5 DB shells.   NGrid=       604
 Symmetry reduced   302 angular points to   302 for atom    5.
 IPart=  2 Atom   5 batch   18 overlaps    5 atoms,    28 shells and     5 DB shells.   NGrid=       604
 IPart=  3 Atom   5 batch   19 overlaps    5 atoms,    20 shells and     4 DB shells.   NGrid=       604
 IPart=  4 Atom   5 batch   20 overlaps    5 atoms,    12 shells and     0 DB shells.   NGrid=       604
 Symmetry reduced   302 angular points to   302 for atom    5.
 Symmetry reduced   302 angular points to   302 for atom    5.
 IPart=  1 Atom   5 batch   21 overlaps    5 atoms,     5 shells and     0 DB shells.   NGrid=       604
 Symmetry reduced   302 angular points to   302 for atom    5.
 IPart=  4 Atom   5 batch   22 overlaps    5 atoms,     3 shells and     0 DB shells.   NGrid=       302
 There are a total of      115770 grid points.
 ElSum from          density=       10.0000000176
 ElSum from atomic densities=       10.9999997988

 Hirshfeld populations at iteration   1 (CX, CA, CB, DipXYZ):
               1          2          3          4          5          6
     1  H    0.000000   0.384849   0.384849   0.000004   0.221020  -0.000000
     2  N    0.000000   3.460667   3.460667  -0.000035   0.000061  -0.000000
     3  H    0.000000   0.384811   0.384811   0.208375  -0.073686   0.000000
     4  H    0.000000   0.384837   0.384837  -0.104182  -0.073707   0.180449
     5  H    0.000000   0.384837   0.384837  -0.104182  -0.073707  -0.180449
       Tot   0.000001   5.000000   5.000000  -0.000020  -0.000020  -0.000000

 Dip from Atomic Chgs              0.000178  -0.000237   0.000000
         Total Dipole              0.000159  -0.000256  -0.000000

 Hirshfeld charges, spin densities, dipoles, and CM5 charges using IRadAn=      5:
              Q-H        S-H        Dx         Dy         Dz        Q-CM5   
     1  H    0.230302   0.000000   0.000004   0.221020  -0.000000   0.407831
     2  N    0.078667   0.000000  -0.000035   0.000061  -0.000000  -0.631158
     3  H    0.230378   0.000000   0.208375  -0.073686   0.000000   0.407747
     4  H    0.230327   0.000000  -0.104182  -0.073707   0.180449   0.407790
     5  H    0.230327   0.000000  -0.104182  -0.073707  -0.180449   0.407790
       Tot   1.000000   0.000000  -0.000020  -0.000020  -0.000000   1.000000
 Hirshfeld charges with hydrogens summed into heavy atoms:
              Q-H       Q-CM5   
     2  N    1.000000   1.000000
 
 EQQ=  0.00000000000     EQD=  0.00000000000     EDD=-0.309923494342E-02
 EQQ+QD+DD=-0.309923494342E-02
 
  Exact polarizability:       8.912      -0.001       8.909      -0.000      -0.000       8.910
 Approx polarizability:       7.729      -0.000       7.727      -0.000      -0.000       7.728
 Entering OneElI...
 OneElI was handed  1572817015 working-precision words.
 Calculate electrostatic properties
    NBasis =   138  MinDer = 0  MaxDer = 0
    NGrid  =     5  NMatD  =   1
 Requested accuracy = 0.1000D-12
 ShPair: Thresh= 1.00D-13 NBox=     0 BxSize= 0.00D+00 RnKept= 3.16D+00
         NSMCal=                 1275 NSMKep=                1275
 PrmmSu-InSpLW:  IPartL=    0 NPrtUS=    8 NPrtUL=    1 DoSpLW=F IThBeg=    0 IThEnd=    7 NThAct=    8.
 PrSmSu:  IncTry=   512 NBBP=           6375 NTPThr=   100 NPartT=    8 Incr=           7 LDynOK=F GPUOK=F.
 PrsmSu:  NPrtUS=   8 ThrOK=T IAlg=2 LenDen=           0 ISkipM=0 DoSpLW=F IThBeg=    0 IThEnd=    7.
 Prism:   IPart=     0 DynPar=F LinDyn=F Incr=           7.
 PRISM was handed   196573239 working-precision words and  1275 shell-pairs
 PRISM was handed   196573239 working-precision words and  1275 shell-pairs
 PRISM was handed   196573239 working-precision words and  1275 shell-pairs
 PRISM was handed   196573239 working-precision words and  1275 shell-pairs
 PRISM was handed   196573239 working-precision words and  1275 shell-pairs
 PRISM was handed   196573239 working-precision words and  1275 shell-pairs
 PRISM was handed   196573239 working-precision words and  1275 shell-pairs
 PRISM was handed   196573239 working-precision words and  1275 shell-pairs
 IPart=  3 NShTot=         810 NBatch=         162 AvBLen=         5.0
 IPart=  7 NShTot=         725 NBatch=         145 AvBLen=         5.0
 IPart=  4 NShTot=         775 NBatch=         155 AvBLen=         5.0
 IPart=  5 NShTot=         765 NBatch=         153 AvBLen=         5.0
 PrsmSu-ThDecC:  IPartSL=    3    0 NPrtUSL=    8    1 IThBeg=    0 IThEnd=    7 CPU=   -1 GPU=   -1 NThAct=    8.
 IPart=  6 NShTot=         740 NBatch=         148 AvBLen=         5.0
 PrsmSu-ThDecC:  IPartSL=    5    0 NPrtUSL=    8    1 IThBeg=    0 IThEnd=    7 CPU=   -1 GPU=   -1 NThAct=    7.
 PrsmSu-ThDecC:  IPartSL=    7    0 NPrtUSL=    8    1 IThBeg=    0 IThEnd=    7 CPU=   -1 GPU=   -1 NThAct=    6.
 PrsmSu-ThDecC:  IPartSL=    6    0 NPrtUSL=    8    1 IThBeg=    0 IThEnd=    7 CPU=   -1 GPU=   -1 NThAct=    5.
 PrsmSu-ThDecC:  IPartSL=    4    0 NPrtUSL=    8    1 IThBeg=    0 IThEnd=    7 CPU=   -1 GPU=   -1 NThAct=    4.
 IPart=  0 NShTot=         885 NBatch=         177 AvBLen=         5.0
 PrsmSu-ThDecC:  IPartSL=    0    0 NPrtUSL=    8    1 IThBeg=    0 IThEnd=    7 CPU=   -1 GPU=   -1 NThAct=    3.
 IPart=  2 NShTot=         825 NBatch=         165 AvBLen=         5.0
 PrsmSu-ThDecC:  IPartSL=    2    0 NPrtUSL=    8    1 IThBeg=    0 IThEnd=    7 CPU=   -1 GPU=   -1 NThAct=    2.
 IPart=  1 NShTot=         850 NBatch=         170 AvBLen=         5.0
 PrsmSu-ThDecC:  IPartSL=    1    0 NPrtUSL=    8    1 IThBeg=    0 IThEnd=    7 CPU=   -1 GPU=   -1 NThAct=    1.
 PrSmSu:  NxtVal=             57.
 --------------------------------------------------------
       Center         ----      EFG at Nuclei      ----
                      3XX-RR        3YY-RR        3ZZ-RR
 --------------------------------------------------------
     1   Atom        0.166468     -0.332930      0.166462
     2   Atom       -0.000234      0.000164      0.000070
     3   Atom       -0.276725      0.110675      0.166050
     4   Atom        0.055463      0.110814     -0.166277
     5   Atom        0.055463      0.110814     -0.166277
 --------------------------------------------------------
                        XY            XZ            YZ
 --------------------------------------------------------
     1   Atom       -0.000010      0.000000     -0.000000
     2   Atom        0.000076      0.000000      0.000000
     3   Atom        0.156564     -0.000000      0.000000
     4   Atom       -0.078414      0.191996      0.135823
     5   Atom       -0.078414     -0.191996     -0.135823
 --------------------------------------------------------


 ---------------------------------------------------------------------------------
              Nuclear Quadrupole Coupling Constant in Principal Axis System
 ---------------------------------------------------------------------------------

       Atom             a.u.   MegaHertz   Gauss  10(-4) cm-1        Axes

              Baa    -0.0002     0.001     0.000     0.000  0.9832 -0.1823 -0.0000
     2 N(14)  Bbb     0.0001    -0.000    -0.000    -0.000  0.0000 -0.0000  1.0000
              Bcc     0.0002    -0.001    -0.000    -0.000  0.1823  0.9832  0.0000
 

 ---------------------------------------------------------------------------------

 No NMR shielding tensors so no spin-rotation constants.
 Leave Link  601 at Sun Sep 28 21:01:58 2025, MaxMem=  1572864000 cpu:               1.4 elap:               0.2
 (Enter /software/sse/easybuild/prefix/software/Gaussian/16.C.01-avx2-nsc1/g16/l602.exe)
 FitSet:  NAtFit=     5 NAtPot=     5 NAtFrz=     0 MDM=     9 TotChg=   1.00000
 Merz-Kollman atomic radii used.
 Read replacement radii for each type of atom:
 Atom Element Radius
    1     1    1.20
    2     7    1.50
    3     1    1.20
    4     1    1.20
    5     1    1.20
 Generate VDW surfaces: Layer= 4 Dens= 6 Start= 1.400 Inc= 0.200

 **********************************************************************

            Electrostatic Properties Using The SCF Density.

 **********************************************************************

       Atomic Center    1 is at   0.000000  1.023561  0.000000
       Atomic Center    2 is at  -0.000029  0.000054  0.000000
       Atomic Center    3 is at   0.965265 -0.341298 -0.000000
       Atomic Center    4 is at  -0.482530 -0.341320  0.835780
       Atomic Center    5 is at  -0.482530 -0.341320 -0.835780
      ESP Fit Center    6 is at   0.217408  1.400122  1.622755
      ESP Fit Center    7 is at  -0.217408  1.400122  1.622755
      ESP Fit Center    8 is at   0.727461  1.443561  1.454923
      ESP Fit Center    9 is at   0.420000  1.751022  1.454923
      ESP Fit Center   10 is at   0.000000  1.863561  1.454923
      ESP Fit Center   11 is at  -0.420000  1.751022  1.454923
      ESP Fit Center   12 is at  -0.727461  1.443561  1.454923
      ESP Fit Center   13 is at   1.107720  1.452694  1.187939
      ESP Fit Center   14 is at   0.877898  1.823870  1.187939
      ESP Fit Center   15 is at   0.529510  2.086960  1.187939
      ESP Fit Center   16 is at   0.109609  2.206432  1.187939
      ESP Fit Center   17 is at  -0.325095  2.166151  1.187939
      ESP Fit Center   18 is at  -0.715893  1.971557  1.187939
      ESP Fit Center   19 is at  -1.010006  1.648930  1.187939
      ESP Fit Center   20 is at   1.390285  1.452407  0.840000
      ESP Fit Center   21 is at   1.202114  1.843148  0.840000
      ESP Fit Center   22 is at   0.907129  2.161065  0.840000
      ESP Fit Center   23 is at   0.531543  2.377910  0.840000
      ESP Fit Center   24 is at   0.108727  2.474415  0.840000
      ESP Fit Center   25 is at  -0.323751  2.442005  0.840000
      ESP Fit Center   26 is at  -0.727461  2.283561  0.840000
      ESP Fit Center   27 is at  -1.066534  2.013159  0.840000
      ESP Fit Center   28 is at  -1.310840  1.654828  0.840000
      ESP Fit Center   29 is at   1.567461  1.443561  0.434816
      ESP Fit Center   30 is at   1.405347  1.834938  0.434816
      ESP Fit Center   31 is at   1.147461  2.171022  0.434816
      ESP Fit Center   32 is at   0.811378  2.428908  0.434816
      ESP Fit Center   33 is at   0.420000  2.591022  0.434816
      ESP Fit Center   34 is at   0.000000  2.646316  0.434816
      ESP Fit Center   35 is at  -0.420000  2.591022  0.434816
      ESP Fit Center   36 is at  -0.811378  2.428908  0.434816
      ESP Fit Center   37 is at  -1.147461  2.171022  0.434816
      ESP Fit Center   38 is at  -1.405347  1.834938  0.434816
      ESP Fit Center   39 is at  -1.567461  1.443561  0.434816
      ESP Fit Center   40 is at   1.627220  1.441360  0.000000
      ESP Fit Center   41 is at   1.472195  1.832907  0.000000
      ESP Fit Center   42 is at   1.224667  2.173600  0.000000
      ESP Fit Center   43 is at   0.900189  2.442031  0.000000
      ESP Fit Center   44 is at   0.519149  2.621335  0.000000
      ESP Fit Center   45 is at   0.105488  2.700245  0.000000
      ESP Fit Center   46 is at  -0.314801  2.673803  0.000000
      ESP Fit Center   47 is at  -0.715309  2.543670  0.000000
      ESP Fit Center   48 is at  -1.070872  2.318023  0.000000
      ESP Fit Center   49 is at  -1.359149  2.011040  0.000000
      ESP Fit Center   50 is at  -1.562024  1.642010  0.000000
      ESP Fit Center   51 is at   1.567461  1.443561 -0.434816
      ESP Fit Center   52 is at   1.405347  1.834938 -0.434816
      ESP Fit Center   53 is at   1.147461  2.171022 -0.434816
      ESP Fit Center   54 is at   0.811378  2.428908 -0.434816
      ESP Fit Center   55 is at   0.420000  2.591022 -0.434816
      ESP Fit Center   56 is at   0.000000  2.646316 -0.434816
      ESP Fit Center   57 is at  -0.420000  2.591022 -0.434816
      ESP Fit Center   58 is at  -0.811378  2.428908 -0.434816
      ESP Fit Center   59 is at  -1.147461  2.171022 -0.434816
      ESP Fit Center   60 is at  -1.405347  1.834938 -0.434816
      ESP Fit Center   61 is at  -1.567461  1.443561 -0.434816
      ESP Fit Center   62 is at   1.390285  1.452407 -0.840000
      ESP Fit Center   63 is at   1.202114  1.843148 -0.840000
      ESP Fit Center   64 is at   0.907129  2.161065 -0.840000
      ESP Fit Center   65 is at   0.531543  2.377910 -0.840000
      ESP Fit Center   66 is at   0.108727  2.474415 -0.840000
      ESP Fit Center   67 is at  -0.323751  2.442005 -0.840000
      ESP Fit Center   68 is at  -0.727461  2.283561 -0.840000
      ESP Fit Center   69 is at  -1.066534  2.013159 -0.840000
      ESP Fit Center   70 is at  -1.310840  1.654828 -0.840000
      ESP Fit Center   71 is at   1.107720  1.452694 -1.187939
      ESP Fit Center   72 is at   0.877898  1.823870 -1.187939
      ESP Fit Center   73 is at   0.529510  2.086960 -1.187939
      ESP Fit Center   74 is at   0.109609  2.206432 -1.187939
      ESP Fit Center   75 is at  -0.325095  2.166151 -1.187939
      ESP Fit Center   76 is at  -0.715893  1.971557 -1.187939
      ESP Fit Center   77 is at  -1.010006  1.648930 -1.187939
      ESP Fit Center   78 is at   0.727461  1.443561 -1.454923
      ESP Fit Center   79 is at   0.420000  1.751022 -1.454923
      ESP Fit Center   80 is at   0.000000  1.863561 -1.454923
      ESP Fit Center   81 is at  -0.420000  1.751022 -1.454923
      ESP Fit Center   82 is at  -0.727461  1.443561 -1.454923
      ESP Fit Center   83 is at   0.217408  1.400122 -1.622755
      ESP Fit Center   84 is at  -0.217408  1.400122 -1.622755
      ESP Fit Center   85 is at   0.803606  0.000054  1.940147
      ESP Fit Center   86 is at   0.695939  0.401872  1.940147
      ESP Fit Center   87 is at   0.401788  0.696022  1.940147
      ESP Fit Center   88 is at   1.166668  0.000054  1.746086
      ESP Fit Center   89 is at   1.087884  0.421514  1.746086
      ESP Fit Center   90 is at   0.862170  0.786053  1.746086
      ESP Fit Center   91 is at   0.520012  1.044439  1.746086
      ESP Fit Center   92 is at   0.107620  1.161775  1.746086
      ESP Fit Center   93 is at  -0.319311  1.122214  1.746086
      ESP Fit Center   94 is at   0.862170 -0.785945  1.746086
      ESP Fit Center   95 is at   1.087884 -0.421406  1.746086
      ESP Fit Center   96 is at   1.424745  0.418405  1.484924
      ESP Fit Center   97 is at   1.249168  0.802865  1.484924
      ESP Fit Center   98 is at   0.972389  1.122285  1.484924
      ESP Fit Center   99 is at   1.546053  0.811501  1.166697
      ESP Fit Center  100 is at   1.306935  1.157923  1.166697
      ESP Fit Center  101 is at  -1.306994  1.157923  1.166697
      ESP Fit Center  102 is at   0.619141 -1.632565  1.166697
      ESP Fit Center  103 is at   1.544508  1.174181  0.803635
      ESP Fit Center  104 is at  -1.662458  1.000304  0.803635
      ESP Fit Center  105 is at   0.105008 -1.937248  0.803635
      ESP Fit Center  106 is at   0.519015 -1.869375  0.803635
      ESP Fit Center  107 is at   1.690455  1.176666  0.409690
      ESP Fit Center  108 is at  -1.800877  0.999606  0.409690
      ESP Fit Center  109 is at  -1.965221  0.616637  0.409690
      ESP Fit Center  110 is at  -2.049111  0.208425  0.409690
      ESP Fit Center  111 is at  -0.516286 -1.993845  0.409690
      ESP Fit Center  112 is at  -0.104349 -2.056952  0.409690
      ESP Fit Center  113 is at   0.311859 -2.035844  0.409690
      ESP Fit Center  114 is at   1.746057  1.166751  0.000000
      ESP Fit Center  115 is at  -1.746116  1.166751  0.000000
      ESP Fit Center  116 is at  -1.940176  0.803689  0.000000
      ESP Fit Center  117 is at  -2.059678  0.409744  0.000000
      ESP Fit Center  118 is at  -2.100029  0.000054  0.000000
      ESP Fit Center  119 is at  -2.059678 -0.409636  0.000000
      ESP Fit Center  120 is at  -1.940176 -0.803581  0.000000
      ESP Fit Center  121 is at  -1.746116 -1.166643  0.000000
      ESP Fit Center  122 is at  -1.484954 -1.484870  0.000000
      ESP Fit Center  123 is at  -1.166727 -1.746032  0.000000
      ESP Fit Center  124 is at  -0.803665 -1.940093  0.000000
      ESP Fit Center  125 is at  -0.409719 -2.059595  0.000000
      ESP Fit Center  126 is at  -0.000029 -2.099946  0.000000
      ESP Fit Center  127 is at   0.409660 -2.059595  0.000000
      ESP Fit Center  128 is at   1.690455  1.176666 -0.409690
      ESP Fit Center  129 is at  -1.800877  0.999606 -0.409690
      ESP Fit Center  130 is at  -1.965221  0.616637 -0.409690
      ESP Fit Center  131 is at  -2.049111  0.208425 -0.409690
      ESP Fit Center  132 is at  -0.516286 -1.993845 -0.409690
      ESP Fit Center  133 is at  -0.104349 -2.056952 -0.409690
      ESP Fit Center  134 is at   0.311859 -2.035844 -0.409690
      ESP Fit Center  135 is at   1.544508  1.174181 -0.803635
      ESP Fit Center  136 is at  -1.662458  1.000304 -0.803635
      ESP Fit Center  137 is at   0.105008 -1.937248 -0.803635
      ESP Fit Center  138 is at   0.519015 -1.869375 -0.803635
      ESP Fit Center  139 is at   1.546053  0.811501 -1.166697
      ESP Fit Center  140 is at   1.306935  1.157923 -1.166697
      ESP Fit Center  141 is at  -1.306994  1.157923 -1.166697
      ESP Fit Center  142 is at   0.619141 -1.632565 -1.166697
      ESP Fit Center  143 is at   1.424745  0.418405 -1.484924
      ESP Fit Center  144 is at   1.249168  0.802865 -1.484924
      ESP Fit Center  145 is at   0.972389  1.122285 -1.484924
      ESP Fit Center  146 is at   1.166668  0.000054 -1.746086
      ESP Fit Center  147 is at   1.087884  0.421514 -1.746086
      ESP Fit Center  148 is at   0.862170  0.786053 -1.746086
      ESP Fit Center  149 is at   0.520012  1.044439 -1.746086
      ESP Fit Center  150 is at   0.107620  1.161775 -1.746086
      ESP Fit Center  151 is at  -0.319311  1.122214 -1.746086
      ESP Fit Center  152 is at   0.862170 -0.785945 -1.746086
      ESP Fit Center  153 is at   1.087884 -0.421406 -1.746086
      ESP Fit Center  154 is at   0.803606  0.000054 -1.940147
      ESP Fit Center  155 is at   0.695939  0.401872 -1.940147
      ESP Fit Center  156 is at   0.401788  0.696022 -1.940147
      ESP Fit Center  157 is at   1.400081 -0.341298  1.622755
      ESP Fit Center  158 is at   1.182673 -0.717859  1.622755
      ESP Fit Center  159 is at   1.805265 -0.341298  1.454923
      ESP Fit Center  160 is at   1.692726  0.078702  1.454923
      ESP Fit Center  161 is at   0.965265 -1.181298  1.454923
      ESP Fit Center  162 is at   1.385265 -1.068759  1.454923
      ESP Fit Center  163 is at   1.692726 -0.761298  1.454923
      ESP Fit Center  164 is at   2.153204 -0.341298  1.187939
      ESP Fit Center  165 is at   2.072985  0.087835  1.187939
      ESP Fit Center  166 is at   1.843162  0.459012  1.187939
      ESP Fit Center  167 is at   1.074874 -1.524170  1.187939
      ESP Fit Center  168 is at   1.494775 -1.404698  1.187939
      ESP Fit Center  169 is at   1.843162 -1.141607  1.187939
      ESP Fit Center  170 is at   2.072985 -0.770431  1.187939
      ESP Fit Center  171 is at   2.420187 -0.341298  0.840000
      ESP Fit Center  172 is at   2.355549  0.087548  0.840000
      ESP Fit Center  173 is at   2.167378  0.478289  0.840000
      ESP Fit Center  174 is at   1.872394  0.796207  0.840000
      ESP Fit Center  175 is at   1.073991 -1.792152  0.840000
      ESP Fit Center  176 is at   1.496808 -1.695647  0.840000
      ESP Fit Center  177 is at   1.872394 -1.478802  0.840000
      ESP Fit Center  178 is at   2.167378 -1.160885  0.840000
      ESP Fit Center  179 is at   2.355549 -0.770144  0.840000
      ESP Fit Center  180 is at   2.588020 -0.341298  0.434816
      ESP Fit Center  181 is at   2.532726  0.078702  0.434816
      ESP Fit Center  182 is at   2.370612  0.470080  0.434816
      ESP Fit Center  183 is at   2.112726  0.806164  0.434816
      ESP Fit Center  184 is at   1.776642  1.064050  0.434816
      ESP Fit Center  185 is at   0.965265 -1.964053  0.434816
      ESP Fit Center  186 is at   1.385265 -1.908759  0.434816
      ESP Fit Center  187 is at   1.776642 -1.746645  0.434816
      ESP Fit Center  188 is at   2.112726 -1.488759  0.434816
      ESP Fit Center  189 is at   2.370612 -1.152675  0.434816
      ESP Fit Center  190 is at   2.532726 -0.761298  0.434816
      ESP Fit Center  191 is at   2.645265 -0.341298  0.000000
      ESP Fit Center  192 is at   2.592484  0.076501  0.000000
      ESP Fit Center  193 is at   2.437460  0.468048  0.000000
      ESP Fit Center  194 is at   2.189932  0.808741  0.000000
      ESP Fit Center  195 is at   1.865454  1.077173  0.000000
      ESP Fit Center  196 is at   1.070753 -2.017983  0.000000
      ESP Fit Center  197 is at   1.484413 -1.939073  0.000000
      ESP Fit Center  198 is at   1.865454 -1.759769  0.000000
      ESP Fit Center  199 is at   2.189932 -1.491337  0.000000
      ESP Fit Center  200 is at   2.437460 -1.150644  0.000000
      ESP Fit Center  201 is at   2.592484 -0.759097  0.000000
      ESP Fit Center  202 is at   2.588020 -0.341298 -0.434816
      ESP Fit Center  203 is at   2.532726  0.078702 -0.434816
      ESP Fit Center  204 is at   2.370612  0.470080 -0.434816
      ESP Fit Center  205 is at   2.112726  0.806164 -0.434816
      ESP Fit Center  206 is at   1.776642  1.064050 -0.434816
[...]
      X  X                                                                                                                           
      X  X                                                                                                                           
      X  X                                                                                                                           
      X  X                                                                                                                           
      X  X                                                                                                                           
      X  X                                                                                                                           
      X  X                                                                                                                           
      X  X                                                                                                                           
         X                                                                                                                           
         X                                                                                                                           
         X                                                                                                                           
         X                                                                                                                           
         X                                                                                                                           
         X                                                                                                                           
         X                                                                                                                           
         X                                                                                                                           
         X                                                                                                                           
         X                                                                                                                           
 
 ***** Axes restored to original set *****
 -------------------------------------------------------------------
 Center     Atomic                   Forces (Hartrees/Bohr)
 Number     Number              X              Y              Z
 -------------------------------------------------------------------
      1        1          -0.000000001    0.000000508   -0.000000000
      2        7           0.000000007    0.000000016   -0.000000000
      3        1          -0.000000486   -0.000000176   -0.000000000
      4        1           0.000000240   -0.000000174   -0.000000417
      5        1           0.000000240   -0.000000174    0.000000417
 -------------------------------------------------------------------
 Cartesian Forces:  Max     0.000000508 RMS     0.000000264
 Force constants in Cartesian coordinates: 
                1             2             3             4             5 
      1  0.637594D-01
      2  0.111361D-05  0.476969D+00
      3  0.000000D+00  0.000000D+00  0.637594D-01
      4 -0.723095D-01 -0.102398D-05  0.000000D+00  0.795707D+00
      5 -0.101903D-05 -0.452161D+00  0.000000D+00  0.000000D+00  0.795707D+00
      6  0.000000D+00  0.000000D+00 -0.723095D-01  0.000000D+00  0.000000D+00
      7  0.695414D-02  0.114279D-04  0.000000D+00 -0.409956D+00 -0.119375D+00
      8 -0.430696D-01 -0.826896D-02  0.000000D+00 -0.119375D+00 -0.114515D+00
      9  0.000000D+00  0.000000D+00 -0.125417D-02  0.000000D+00  0.000000D+00
     10  0.797994D-03 -0.576012D-05 -0.355445D-02 -0.156721D+00  0.596881D-01
     11  0.215348D-01 -0.826915D-02 -0.372993D-01  0.596881D-01 -0.114516D+00
     12 -0.355436D-02  0.994640D-05  0.490216D-02  0.146205D+00 -0.103383D+00
     13  0.797993D-03 -0.575819D-05  0.355445D-02 -0.156721D+00  0.596880D-01
     14  0.215347D-01 -0.826913D-02  0.372993D-01  0.596880D-01 -0.114516D+00
     15  0.355435D-02 -0.993928D-05  0.490214D-02 -0.146205D+00  0.103383D+00
                6             7             8             9            10 
      6  0.795707D+00
      7  0.000000D+00  0.431057D+00
      8  0.000000D+00  0.129858D+00  0.109671D+00
      9 -0.723095D-01  0.000000D+00  0.000000D+00  0.637593D-01
     10  0.146205D+00 -0.140275D-01  0.162932D-01  0.339814D-01  0.155583D+00
     11 -0.103383D+00 -0.524728D-02  0.655639D-02  0.157841D-01 -0.649298D-01
     12 -0.325544D+00 -0.119414D-02  0.334777D-02  0.490215D-02 -0.159044D+00
     13 -0.146205D+00 -0.140275D-01  0.162932D-01 -0.339814D-01  0.143669D-01
     14  0.103383D+00 -0.524728D-02  0.655638D-02 -0.157841D-01 -0.110459D-01
     15 -0.325544D+00  0.119414D-02 -0.334777D-02  0.490215D-02 -0.175877D-01
               11            12            13            14            15 
     11  0.109672D+00
     12  0.112462D+00  0.339232D+00
     13 -0.110459D-01  0.175877D-01  0.155583D+00
     14  0.655648D-02 -0.124365D-01 -0.649296D-01  0.109672D+00
     15  0.124365D-01 -0.234924D-01  0.159044D+00 -0.112462D+00  0.339232D+00
 FormGI is forming the generalized inverse of G from B-inverse, IUseBI=4.
 Force constants in internal coordinates: 
                1             2             3             4             5 
      1  0.476969D+00
      2  0.274554D-02  0.476969D+00
      3  0.274554D-02  0.274554D-02  0.476969D+00
      4  0.274554D-02  0.274554D-02  0.274554D-02  0.476969D+00
      5  0.413511D-02  0.909725D-02 -0.578916D-02 -0.744320D-02  0.112074D+00
      6  0.413511D-02 -0.578915D-02  0.909725D-02 -0.744320D-02 -0.427526D-01
      7  0.413511D-02 -0.578915D-02 -0.578916D-02  0.744320D-02 -0.424142D-01
      8 -0.827022D-03  0.413511D-02  0.413511D-02 -0.744320D-02  0.656897D-02
      9 -0.578916D-02  0.661617D-02 -0.827022D-02  0.744320D-02 -0.182610D-01
     10 -0.578916D-02 -0.827022D-02  0.661618D-02  0.744320D-02 -0.152155D-01
     11 -0.810313D-02  0.405156D-02  0.405156D-02  0.000000D+00 -0.124548D-01
                6             7             8             9            10 
      6  0.112074D+00
      7 -0.424142D-01  0.112751D+00
      8  0.656897D-02  0.893768D-02  0.627529D-01
      9 -0.152155D-01 -0.184302D-01 -0.424142D-01  0.124574D+00
     10 -0.182610D-01 -0.184302D-01 -0.424142D-01 -0.302530D-01  0.124574D+00
     11 -0.124548D-01 -0.116259D-01  0.249096D-01  0.581297D-02  0.581297D-02
               11 
     11  0.376273D-01
 Leave Link  716 at Sun Sep 28 21:02:20 2025, MaxMem=  1572864000 cpu:               0.2 elap:               0.0
 (Enter /software/sse/easybuild/prefix/software/Gaussian/16.C.01-avx2-nsc1/g16/l103.exe)

 GradGradGradGradGradGradGradGradGradGradGradGradGradGradGradGradGradGrad
 Berny optimization.
 Red2BG is reusing G-inverse.
 Internal  Forces:  Max     0.000000517 RMS     0.000000309
 Search for a local minimum.
 Step number   1 out of a maximum of    2
 All quantities printed in internal units (Hartrees-Bohrs-Radians)
 Second derivative matrix not updated -- analytic derivatives used.
 The second derivative matrix:
                          R1        R2        R3        R4        A1
           R1           0.47697
           R2           0.00275   0.47697
           R3           0.00275   0.00275   0.47697
           R4           0.00275   0.00275   0.00275   0.47697
           A1           0.00414   0.00910  -0.00579  -0.00744   0.11207
           A2           0.00414  -0.00579   0.00910  -0.00744  -0.04275
           A3           0.00414  -0.00579  -0.00579   0.00744  -0.04241
           A4          -0.00083   0.00414   0.00414  -0.00744   0.00657
           A5          -0.00579   0.00662  -0.00827   0.00744  -0.01826
           A6          -0.00579  -0.00827   0.00662   0.00744  -0.01522
           D1          -0.00810   0.00405   0.00405  -0.00000  -0.01245
                          A2        A3        A4        A5        A6
           A2           0.11207
           A3          -0.04241   0.11275
           A4           0.00657   0.00894   0.06275
           A5          -0.01522  -0.01843  -0.04241   0.12457
           A6          -0.01826  -0.01843  -0.04241  -0.03025   0.12457
           D1          -0.01245  -0.01163   0.02491   0.00581   0.00581
                          D1
           D1           0.03763
 ITU=  0
     Eigenvalues ---    0.06727   0.15041   0.15041   0.15715   0.15787
     Eigenvalues ---    0.47480   0.47559   0.47559   0.48521
 Angle between quadratic step and forces=   2.05 degrees.
 Linear search not attempted -- first point.
 Iteration  1 RMS(Cart)=  0.00000064 RMS(Int)=  0.00000000
 ITry= 1 IFail=0 DXMaxC= 1.07D-06 DCOld= 1.00D+10 DXMaxT= 3.00D-01 DXLimC= 3.00D+00 Rises=F
 ClnCor:  largest displacement from symmetrization is 3.19D-08 for atom     3.
 Variable       Old X    -DE/DX   Delta X   Delta X   Delta X     New X
                                 (Linear)    (Quad)   (Total)
    R1        1.90852   0.00000   0.00000   0.00000   0.00000   1.90852
    R2        1.90852   0.00000   0.00000   0.00000   0.00000   1.90852
    R3        1.90852   0.00000   0.00000   0.00000   0.00000   1.90852
    R4        1.90852   0.00000   0.00000   0.00000   0.00000   1.90852
    A1        1.91063   0.00000   0.00000   0.00000  -0.00000   1.91063
    A2        1.91063   0.00000   0.00000   0.00000   0.00000   1.91063
    A3        1.91063   0.00000   0.00000   0.00000   0.00000   1.91063
    A4        1.91063  -0.00000   0.00000  -0.00000   0.00000   1.91063
    A5        1.91063  -0.00000   0.00000  -0.00000   0.00000   1.91063
    A6        1.91063  -0.00000   0.00000  -0.00000  -0.00000   1.91063
    D1        2.09440  -0.00000   0.00000  -0.00000   0.00000   2.09440
         Item               Value     Threshold  Converged?
 Maximum Force            0.000001     0.000002     YES
 RMS     Force            0.000000     0.000001     YES
 Maximum Displacement     0.000001     0.000006     YES
 RMS     Displacement     0.000001     0.000004     YES
 Predicted change in Energy=-1.080357D-12
 Optimization completed.
    -- Stationary point found.
                           ----------------------------
                           !   Optimized Parameters   !
                           ! (Angstroms and Degrees)  !
 --------------------------                            --------------------------
 ! Name  Definition              Value          Derivative Info.                !
 --------------------------------------------------------------------------------
 ! R1    R(1,2)                  1.0099         -DE/DX =    0.0                 !
 ! R2    R(2,3)                  1.0099         -DE/DX =    0.0                 !
 ! R3    R(2,4)                  1.0099         -DE/DX =    0.0                 !
 ! R4    R(2,5)                  1.0099         -DE/DX =    0.0                 !
 ! A1    A(1,2,3)              109.4712         -DE/DX =    0.0                 !
 ! A2    A(1,2,4)              109.4712         -DE/DX =    0.0                 !
 ! A3    A(1,2,5)              109.4712         -DE/DX =    0.0                 !
 ! A4    A(3,2,4)              109.4712         -DE/DX =    0.0                 !
 ! A5    A(3,2,5)              109.4712         -DE/DX =    0.0                 !
 ! A6    A(4,2,5)              109.4712         -DE/DX =    0.0                 !
 ! D1    D(3,2,5,4)            120.0            -DE/DX =    0.0                 !
 --------------------------------------------------------------------------------
 GradGradGradGradGradGradGradGradGradGradGradGradGradGradGradGradGradGrad

 Leave Link  103 at Sun Sep 28 21:02:20 2025, MaxMem=  1572864000 cpu:               0.1 elap:               0.0
 (Enter /software/sse/easybuild/prefix/software/Gaussian/16.C.01-avx2-nsc1/g16/l9999.exe)
 Dipole is zero, so no output in dipole orientation.

 ----------------------------------------------------------------------

 Electric dipole moment (input orientation):
 (Debye = 10**-18 statcoulomb cm , SI units = C m)
                  (au)            (Debye)         (10**-30 SI)
   Tot        0.000000D+00      0.000000D+00      0.000000D+00
   x          0.000000D+00      0.000000D+00      0.000000D+00
   y          0.000000D+00      0.000000D+00      0.000000D+00
   z          0.000000D+00      0.000000D+00      0.000000D+00

 Dipole polarizability, Alpha (input orientation).
 (esu units = cm**3 , SI units = C**2 m**2 J**-1)
 Alpha(0;0):
               (au)            (10**-24 esu)      (10**-40 SI)
   iso        0.863248D+01      0.127920D+01      0.142330D+01
   aniso      0.000000D+00      0.000000D+00      0.000000D+00
   xx         0.863248D+01      0.127920D+01      0.142330D+01
   yx         0.000000D+00      0.000000D+00      0.000000D+00
   yy         0.863248D+01      0.127920D+01      0.142330D+01
   zx         0.000000D+00      0.000000D+00      0.000000D+00
   zy         0.000000D+00      0.000000D+00      0.000000D+00
   zz         0.863248D+01      0.127920D+01      0.142330D+01

 First dipole hyperpolarizability, Beta (input orientation).
 ||, _|_  parallel and perpendicular components, (z) with respect to z axis,
 vector components x,y,z.  Values do not include the 1/n! factor of 1/2.
 (esu units = statvolt**-1 cm**4 , SI units = C**3 m**3 J**-2)
 Beta(0;0,0):
               (au)            (10**-30 esu)      (10**-50 SI)
   || (z)     0.000000D+00      0.000000D+00      0.000000D+00
   _|_(z)     0.000000D+00      0.000000D+00      0.000000D+00
   x          0.000000D+00      0.000000D+00      0.000000D+00
   y          0.000000D+00      0.000000D+00      0.000000D+00
   z          0.000000D+00      0.000000D+00      0.000000D+00
   ||         0.000000D+00      0.000000D+00      0.000000D+00
   xxx       -0.407217D+01     -0.351804D-01     -0.130568D-01
   xxy       -0.287943D+01     -0.248760D-01     -0.923249D-02
   yxy        0.308896D-04      0.266862D-06      0.990431D-07
   yyy        0.575888D+01      0.497523D-01      0.184651D-01
   xxz        0.000000D+00      0.000000D+00      0.000000D+00
   yxz        0.000000D+00      0.000000D+00      0.000000D+00
   yyz        0.000000D+00      0.000000D+00      0.000000D+00
   zxz        0.407214D+01      0.351801D-01      0.130567D-01
   zyz       -0.287945D+01     -0.248762D-01     -0.923256D-02
   zzz        0.000000D+00      0.000000D+00      0.000000D+00

 ----------------------------------------------------------------------

 Test job not archived.
 1\1\NSC-N193\Freq\RHF\Aug-CC-pVTZ\H4N1(1+)\X_DAVVA\28-Sep-2025\0\\#P G
 eom=AllCheck Guess=TCheck SCRF=Check Test GenChk RHF/Aug-CC-pVTZ Freq\
 \ammonium\\1,1\H,-0.0000439925,1.0098583275,-0.0000002732\N,-0.0000467
 052,-0.0000859736,0.\H,-0.9522322281,-0.3367315165,0.\H,0.4760447787,-
 0.3367355759,-0.8246159322\H,0.476044621,-0.3367351298,0.8246162054\\V
 ersion=ES64L-G16RevC.01\State=1-A1\HF=-56.564849\RMSD=5.250e-09\RMSF=2
 .645e-07\ZeroPoint=0.0526483\Thermal=0.0554927\ETot=-56.5093563\HTot=-
 56.5084121\GTot=-56.529463\Dipole=0.,0.,0.\DipoleDeriv=0.2749223,0.000
 0003,0.,0.0000003,0.3908803,0.,0.,0.,0.2749223,-0.2542999,0.,0.,0.,-0.
 2542998,0.,0.,0.,-0.2542999,0.3779963,0.0364418,0.,0.0364418,0.2878063
 ,0.,0.,0.,0.2749223,0.3006907,-0.0182211,-0.0446322,-0.0182211,0.28780
 67,0.0315599,-0.0446322,0.0315599,0.3522276,0.3006907,-0.0182211,0.044
 6322,-0.018221,0.2878066,-0.0315598,0.0446322,-0.0315599,0.3522277\Pol
 ar=8.6324838,0.,8.6324846,0.,0.,8.632484\PolarDeriv=-0.193832,0.696442
 9,0.0000117,-0.0000002,0.,0.1938414,1.0734962,0.0000107,5.7615586,0.,-
 0.0000011,1.0734951,-0.0000003,0.,-0.0000012,0.1938404,0.6964418,-0.00
 00006,2.4157642,1.7081871,-0.0000183,0.0000002,-0.0000007,-2.4157459,1
 .7081877,-0.0000184,-3.4163876,-0.0000007,0.0000018,1.7082007,0.000000
 2,-0.0000007,0.0000018,-2.415746,1.7082002,-0.0000021,-5.0940463,-1.18
 81835,-1.4147224,0.,0.,-0.94749,-1.313867,-1.0592325,-0.7817139,0.,-0.
 0000001,-0.5405821,0.,0.,-0.0000001,-0.5920003,-0.4148985,0.0000002,1.
 4360573,-0.6082237,0.7073648,-1.1540953,0.3348455,1.5846974,-0.7339087
 ,0.5296203,-0.7817291,0.3348455,-0.9173284,-1.1205573,-1.4619581,0.334
 8455,-1.2251913,1.406953,-0.9948721,-3.7701531,1.4360566,-0.6082229,0.
 7073642,1.1540954,-0.3348449,1.5846975,-0.7339078,0.5296198,-0.7817274
 ,-0.3348449,0.9173278,-1.1205563,1.4619582,-0.334845,1.2251907,1.40695
 31,-0.9948714,3.7701556\HyperPolar=-4.0721682,-2.8794302,0.0000309,5.7
 588834,-0.0000004,0.0000011,-0.0000031,4.0721371,-2.879452,0.0000035\Q
 uadrupole=0.,0.,0.,0.,0.,0.\PG=TD [O(N1),4C3(H1)]\NImag=0\\0.06375936,
 0.00000111,0.47696868,0.,-0.00000011,0.06375936,-0.07230948,-0.0000010
 2,0.,0.79570727,-0.00000102,-0.45216144,0.00000010,0.,0.79570729,0.,0.
 00000010,-0.07230948,0.,0.,0.79570727,0.00695414,0.00001143,0.,-0.4099
 5634,-0.11937517,0.,0.43105721,-0.04306959,-0.00826896,0.,-0.11937517,
 -0.11451463,0.,0.12985830,0.10967080,0.00000001,0.,-0.00125417,0.,0.,-
 0.07230948,0.,0.,0.06375935,0.00079799,-0.00000576,-0.00355445,-0.1567
 2074,0.05968814,0.14620482,-0.01402753,0.01629324,0.03398139,0.1555833
 2,0.02153475,-0.00826915,-0.03729931,0.05968814,-0.11451564,-0.1033830
 6,-0.00524728,0.00655639,0.01578409,-0.06492976,0.10967191,-0.00355436
 ,0.00000995,0.00490216,0.14620482,-0.10338305,-0.32554405,-0.00119414,
 0.00334777,0.00490215,-0.15904403,0.11246182,0.33923214,0.00079799,-0.
 00000576,0.00355445,-0.15672068,0.05968804,-0.14620482,-0.01402752,0.0
 1629322,-0.03398141,0.01436694,-0.01104585,0.01758773,0.15558326,0.021
 53475,-0.00826913,0.03729932,0.05968804,-0.11451553,0.10338295,-0.0052
 4728,0.00655638,-0.01578409,-0.01104586,0.00655648,-0.01243648,-0.0649
 2965,0.10967179,0.00355435,-0.00000994,0.00490214,-0.14620482,0.103382
 95,-0.32554422,0.00119414,-0.00334777,0.00490215,-0.01758771,0.0124364
 6,-0.02349241,0.15904403,-0.11246170,0.33923232\\0.,-0.00000051,0.,0.,
 -0.00000002,0.,0.00000049,0.00000018,0.,-0.00000024,0.00000017,0.00000
 042,-0.00000024,0.00000017,-0.00000042\\\@


 THOUGH I SPEAK WITH THE TONGUES OF MEN AND OF ANGELS, 
 AND HAVE NOT LOVE,
 I AM BECOME AS SOUNDING BRASS, A TINKLING CYMBAL.
 AND THOUGH I HAVE THE GIFT OF PROPHECY,
 AND UNDERSTAND ALL MYSTERIES, AND ALL KNOWLEDGE.
 AND THOUGH I HAVE ALL FAITH, SO THAT I COULD REMOVE MOUNTAINS,
 AND HAVE NOT LOVE, I AM NOTHING.
 AND THOUGH I BESTOW ALL MY GOODS TO FEED THE POOR,
 AND THOUGH I GIVE MY BODY TO BE BURNED,
 AND HAVE NOT LOVE IT PROFITETH ME NOTHING.
 LOVE SUFFERETH LONG, AND IS KIND,
 LOVE ENVIETH NOT,
 LOVE VAUNTETH NOT ITSELF, IS NOT PUFFED UP,
 DOTH NOT BEHAVE ITSELF UNSEEMLY, SEEKETH NOT HER OWN,
 IS NOT EASILY PROVOKED, THINKETH NO EVIL,
 REJOICETH NOT IN INIQUITY, BUT REJOICETH IN THE TRUTH,
 BEARETH ALL THINGS, BELIEVETH ALL THINGS,
 HOPETH ALL THINGS, ENDURETH ALL THINGS.
 LOVE NEVER FAILETH, BUT WHETHER THERE BE PROPHECIES, THEY SHALL FAIL, 
 WHETHER THERE BE TONGUES, THEY SHALL CEASE,
 WHETHER THERE BE KNOWLEDGE, IT SHALL VANISH AWAY.
 FOR WE KNOW IN PART, AND WE PROPHESY IN PART.
 BUT WHEN THAT WHICH IS PERFECT IS COME, THEN THAT WHICH IS IN PART 
 SHALL BE DONE AWAY. 
 WHEN I WAS A CHILD, I SPAKE AS A CHILD, I UNDERSTOOD AS A CHILD, 
 I THOUGHT AS A CHILD.
 BUT WHEN I BECAME A MAN, I PUT AWAY CHILDISH THINGS.
 FOR NOW WE SEE THROUGH A GLASS, DARKLY, BUT THEN FACE TO FACE.
 NOW I KNOW IN PART. BUT THEN SHALL I KNOW EVEN AS ALSO I AM KNOWN.
 AND NOW ABIDETH FAITH, HOPE AND LOVE, THESE THREE.
 BUT THE GREATEST OF THESE IS LOVE.

                     I CORINTHIANS 13
 Job cpu time:       0 days  0 hours  0 minutes 35.3 seconds.
 Elapsed time:       0 days  0 hours  0 minutes  4.8 seconds.
 File lengths (MBytes):  RWF=     15 Int=      0 D2E=      0 Chk=      8 Scr=      1
 Normal termination of Gaussian 16 at Sun Sep 28 21:02:20 2025.
