 Entering Gaussian System, Link 0=/software/sse/easybuild/prefix/software/Gaussian/16.C.01-avx2-nsc1/g16/g16.orig
 Input=ammonium.wrap
 Output=ammonium.log
 Initial command:
 /software/sse/easybuild/prefix/software/Gaussian/16.C.01-avx2-nsc1/g16/l1.exe "/scratch/local/Gau-1382871.inp" -scrdir="/scratch/local/"
 Entering Link 1 = /software/sse/easybuild/prefix/software/Gaussian/16.C.01-avx2-nsc1/g16/l1.exe PID=   1382872.
  
 Copyright (c) 1988-2019, Gaussian, Inc.  All Rights Reserved.
  
 This is part of the Gaussian(R) 16 program.  It is based on
 the Gaussian(R) 09 system (copyright 2009, Gaussian, Inc.),
 the Gaussian(R) 03 system (copyright 2003, Gaussian, Inc.),
 the Gaussian(R) 98 system (copyright 1998, Gaussian, Inc.),
 the Gaussian(R) 94 system (copyright 1995, Gaussian, Inc.),
 the Gaussian 92(TM) system (copyright 1992, Gaussian, Inc.),
 the Gaussian 90(TM) system (copyright 1990, Gaussian, Inc.),
 the Gaussian 88(TM) system (copyright 1988, Gaussian, Inc.),
 the Gaussian 86(TM) system (copyright 1986, Carnegie Mellon
 University), and the Gaussian 82(TM) system (copyright 1983,
 Carnegie Mellon University). Gaussian is a federally registered
 trademark of Gaussian, Inc.
  
 This software contains proprietary and confidential information,
 including trade secrets, belonging to Gaussian, Inc.
  
 This software is provided under written license and may be
 used, copied, transmitted, or stored only in accord with that
 written license.
  
 The following legend is applicable only to US Government
 contracts under FAR:
  
                    RESTRICTED RIGHTS LEGEND
  
 Use, reproduction and disclosure by the US Government is
 subject to restrictions as set forth in subparagraphs (a)
 and (c) of the Commercial Computer Software - Restricted
 Rights clause in FAR 52.227-19.
  
 Gaussian, Inc.
 340 Quinnipiac St., Bldg. 40, Wallingford CT 06492
  
  
 ---------------------------------------------------------------
 Warning -- This program may not be used in any manner that
 competes with the business of Gaussian, Inc. or will provide
 assistance to any competitor of Gaussian, Inc.  The licensee
 of this program is prohibited from giving any competitor of
 Gaussian, Inc. access to this program.  By using this program,
 the user acknowledges that Gaussian, Inc. is engaged in the
 business of creating and licensing software in the field of
 computational chemistry and represents and warrants to the
 licensee that it is not a competitor of Gaussian, Inc. and that
 it will not use this program in any manner prohibited above.
 ---------------------------------------------------------------
  

 Cite this work as:
 Gaussian 16, Revision C.01,
 M. J. Frisch, G. W. Trucks, H. B. Schlegel, G. E. Scuseria, 
 M. A. Robb, J. R. Cheeseman, G. Scalmani, V. Barone, 
 G. A. Petersson, H. Nakatsuji, X. Li, M. Caricato, A. V. Marenich, 
 J. Bloino, B. G. Janesko, R. Gomperts, B. Mennucci, H. P. Hratchian, 
 J. V. Ortiz, A. F. Izmaylov, J. L. Sonnenberg, D. Williams-Young, 
 F. Ding, F. Lipparini, F. Egidi, J. Goings, B. Peng, A. Petrone, 
 T. Henderson, D. Ranasinghe, V. G. Zakrzewski, J. Gao, N. Rega, 
 G. Zheng, W. Liang, M. Hada, M. Ehara, K. Toyota, R. Fukuda, 
 J. Hasegawa, M. Ishida, T. Nakajima, Y. Honda, O. Kitao, H. Nakai, 
 T. Vreven, K. Throssell, J. A. Montgomery, Jr., J. E. Peralta, 
 F. Ogliaro, M. J. Bearpark, J. J. Heyd, E. N. Brothers, K. N. Kudin, 
 V. N. Staroverov, T. A. Keith, R. Kobayashi, J. Normand, 
 K. Raghavachari, A. P. Rendell, J. C. Burant, S. S. Iyengar, 
 J. Tomasi, M. Cossi, J. M. Millam, M. Klene, C. Adamo, R. Cammi, 
 J. W. Ochterski, R. L. Martin, K. Morokuma, O. Farkas, 
 J. B. Foresman, and D. J. Fox, Gaussian, Inc., Wallingford CT, 2019.
 
 ******************************************
 Gaussian 16:  ES64L-G16RevC.01  3-Jul-2019
                30-Sep-2025 
 ******************************************
 %mem=12000MB
 %nprocshared=16
 Will use up to   16 processors via shared memory.
 %mem=32Gb
 %chk=ammonium.chk
 ----------------------------------------------------------------------
 #P HF/aug-cc-pvtz Opt=tight Pop=(MK,Hirshfeld) iop(6/33=2) iop(6/42=6)
  maxdisk=128GB
 ----------------------------------------------------------------------
 1/7=10,18=20,19=15,38=1/1,3;
 2/9=110,12=2,17=6,18=5,40=1/2;
 3/5=16,6=1,7=10,11=9,25=1,30=1,71=1/1,2,3;
 4//1;
 5/5=2,38=5/2;
 6/7=2,8=2,9=2,10=2,15=8,20=1,28=1,33=2,42=6,79=1/1,2;
 7//1,2,3,16;
 1/7=10,18=20,19=15/3(2);
 2/9=110/2;
 99//99;
 2/9=110/2;
 3/5=16,6=1,7=10,11=9,25=1,30=1,71=1/1,2,3;
 4/5=5,16=3,69=1/1;
 5/5=2,38=5/2;
 7//1,2,3,16;
 1/7=10,18=20,19=15/3(-5);
 2/9=110/2;
 6/7=2,8=2,9=2,10=2,15=8,19=2,20=1,28=1,33=2,42=6,79=1/1,2;
 99/9=1/99;
 Leave Link    1 at Tue Sep 30 16:58:49 2025, MaxMem=  4294967296 cpu:               1.3 elap:               0.1
 (Enter /software/sse/easybuild/prefix/software/Gaussian/16.C.01-avx2-nsc1/g16/l101.exe)
 --------
 ammonium
 --------
 Symbolic Z-matrix:
 Charge =  1 Multiplicity = 1
 H                    -0.58309   0.58309   0.58309 
 N                     0.        0.        0. 
 H                     0.58309  -0.58309   0.58309 
 H                    -0.58309  -0.58309  -0.58309 
 H                     0.58309   0.58309  -0.58309 
 
 ITRead=  0  0  0  0  0
 MicOpt= -1 -1 -1 -1 -1
 NAtoms=      5 NQM=        5 NQMF=       0 NMMI=      0 NMMIF=      0
                NMic=       0 NMicF=      0.
                    Isotopes and Nuclear Properties:
 (Nuclear quadrupole moments (NQMom) in fm**2, nuclear magnetic moments (NMagM)
  in nuclear magnetons)

  Atom         1           2           3           4           5
 IAtWgt=           1          14           1           1           1
 AtmWgt=   1.0078250  14.0030740   1.0078250   1.0078250   1.0078250
 NucSpn=           1           2           1           1           1
 AtZEff=  -0.0000000  -0.0000000  -0.0000000  -0.0000000  -0.0000000
 NQMom=    0.0000000   2.0440000   0.0000000   0.0000000   0.0000000
 NMagM=    2.7928460   0.4037610   2.7928460   2.7928460   2.7928460
 AtZNuc=   1.0000000   7.0000000   1.0000000   1.0000000   1.0000000
 Leave Link  101 at Tue Sep 30 16:58:50 2025, MaxMem=  4294967296 cpu:               5.3 elap:               0.4
 (Enter /software/sse/easybuild/prefix/software/Gaussian/16.C.01-avx2-nsc1/g16/l103.exe)

 GradGradGradGradGradGradGradGradGradGradGradGradGradGradGradGradGradGrad
 Berny optimization.
 Initialization pass.
                           ----------------------------
                           !    Initial Parameters    !
                           ! (Angstroms and Degrees)  !
 --------------------------                            --------------------------
 ! Name  Definition              Value          Derivative Info.                !
 --------------------------------------------------------------------------------
 ! R1    R(1,2)                  1.0099         estimate D2E/DX2                !
 ! R2    R(2,3)                  1.0099         estimate D2E/DX2                !
 ! R3    R(2,4)                  1.0099         estimate D2E/DX2                !
 ! R4    R(2,5)                  1.0099         estimate D2E/DX2                !
 ! A1    A(1,2,3)              109.4712         estimate D2E/DX2                !
 ! A2    A(1,2,4)              109.4712         estimate D2E/DX2                !
 ! A3    A(1,2,5)              109.4712         estimate D2E/DX2                !
 ! A4    A(3,2,4)              109.4712         estimate D2E/DX2                !
 ! A5    A(3,2,5)              109.4712         estimate D2E/DX2                !
 ! A6    A(4,2,5)              109.4712         estimate D2E/DX2                !
 ! D1    D(3,2,5,4)            120.0            estimate D2E/DX2                !
 --------------------------------------------------------------------------------
 Trust Radius=3.00D-01 FncErr=1.00D-07 GrdErr=1.00D-07 EigMax=2.50D+02 EigMin=1.00D-04
 Number of steps in this run=     21 maximum allowed number of steps=    100.
 GradGradGradGradGradGradGradGradGradGradGradGradGradGradGradGradGradGrad

 Leave Link  103 at Tue Sep 30 16:58:50 2025, MaxMem=  4294967296 cpu:               0.2 elap:               0.0
 (Enter /software/sse/easybuild/prefix/software/Gaussian/16.C.01-avx2-nsc1/g16/l202.exe)
                          Input orientation:                          
 ---------------------------------------------------------------------
 Center     Atomic      Atomic             Coordinates (Angstroms)
 Number     Number       Type             X           Y           Z
 ---------------------------------------------------------------------
      1          1           0       -0.583090    0.583090    0.583090
      2          7           0        0.000000    0.000000    0.000000
      3          1           0        0.583090   -0.583090    0.583090
      4          1           0       -0.583090   -0.583090   -0.583090
      5          1           0        0.583090    0.583090   -0.583090
 ---------------------------------------------------------------------
                    Distance matrix (angstroms):
                    1          2          3          4          5
     1  H    0.000000
     2  N    1.009942   0.000000
     3  H    1.649228   1.009942   0.000000
     4  H    1.649228   1.009942   1.649228   0.000000
     5  H    1.649228   1.009942   1.649228   1.649228   0.000000
 Stoichiometry    H4N(1+)
 Framework group  TD[O(N),4C3(H)]
 Deg. of freedom     1
 Full point group                 TD      NOp  24
 Largest Abelian subgroup         D2      NOp   4
 Largest concise Abelian subgroup D2      NOp   4
                         Standard orientation:                         
 ---------------------------------------------------------------------
 Center     Atomic      Atomic             Coordinates (Angstroms)
 Number     Number       Type             X           Y           Z
 ---------------------------------------------------------------------
      1          1           0        0.583090    0.583090    0.583090
      2          7           0        0.000000    0.000000    0.000000
      3          1           0       -0.583090   -0.583090    0.583090
      4          1           0       -0.583090    0.583090   -0.583090
      5          1           0        0.583090   -0.583090   -0.583090
 ---------------------------------------------------------------------
 Rotational constants (GHZ):         184.3617759         184.3617759         184.3617759
 Leave Link  202 at Tue Sep 30 16:58:50 2025, MaxMem=  4294967296 cpu:               0.2 elap:               0.0
 (Enter /software/sse/easybuild/prefix/software/Gaussian/16.C.01-avx2-nsc1/g16/l301.exe)
 Standard basis: Aug-CC-pVTZ (5D, 7F)
 Ernie: Thresh=  0.10000D-02 Tol=  0.10000D-05 Strict=F.
 Ernie:  3 primitive shells out of 74 were deleted.
 There are    41 symmetry adapted cartesian basis functions of A   symmetry.
 There are    38 symmetry adapted cartesian basis functions of B1  symmetry.
 There are    38 symmetry adapted cartesian basis functions of B2  symmetry.
 There are    38 symmetry adapted cartesian basis functions of B3  symmetry.
 There are    36 symmetry adapted basis functions of A   symmetry.
 There are    34 symmetry adapted basis functions of B1  symmetry.
 There are    34 symmetry adapted basis functions of B2  symmetry.
 There are    34 symmetry adapted basis functions of B3  symmetry.
   138 basis functions,   180 primitive gaussians,   155 cartesian basis functions
     5 alpha electrons        5 beta electrons
       nuclear repulsion energy        16.5962910147 Hartrees.
 IExCor=    0 DFT=F Ex=HF Corr=None ExCW=0 ScaHFX=  1.000000
 ScaDFX=  1.000000  1.000000  1.000000  1.000000 ScalE2=  1.000000  1.000000
 IRadAn=      5 IRanWt=     -1 IRanGd=            0 ICorTp=0 IEmpDi=  4
 NAtoms=    5 NActive=    5 NUniq=    2 SFac= 4.00D+00 NAtFMM=   60 NAOKFM=F Big=F
 Integral buffers will be    131072 words long.
 Raffenetti 1 integral format.
 Two-electron integral symmetry is turned on.
 Leave Link  301 at Tue Sep 30 16:58:51 2025, MaxMem=  4294967296 cpu:               0.9 elap:               0.1
 (Enter /software/sse/easybuild/prefix/software/Gaussian/16.C.01-avx2-nsc1/g16/l302.exe)
 NPDir=0 NMtPBC=     1 NCelOv=     1 NCel=       1 NClECP=     1 NCelD=      1
         NCelK=      1 NCelE2=     1 NClLst=     1 CellRange=     0.0.
 One-electron integrals computed using PRISM.
 One-electron integral symmetry used in STVInt
 NBasis=   138 RedAO= T EigKep=  9.56D-05  NBF=    36    34    34    34
 NBsUse=   138 1.00D-06 EigRej= -1.00D+00 NBFU=    36    34    34    34
 Leave Link  302 at Tue Sep 30 16:58:51 2025, MaxMem=  4294967296 cpu:               2.3 elap:               0.2
 (Enter /software/sse/easybuild/prefix/software/Gaussian/16.C.01-avx2-nsc1/g16/l303.exe)
 DipDrv:  MaxL=1.
 Leave Link  303 at Tue Sep 30 16:58:52 2025, MaxMem=  4294967296 cpu:               0.5 elap:               0.0
 (Enter /software/sse/easybuild/prefix/software/Gaussian/16.C.01-avx2-nsc1/g16/l401.exe)
 ExpMin= 2.53D-02 ExpMax= 1.14D+04 ExpMxC= 3.89D+02 IAcc=3 IRadAn=         5 AccDes= 0.00D+00
 Harris functional with IExCor=  205 and IRadAn=       5 diagonalized for initial guess.
 HarFok:  IExCor=  205 AccDes= 0.00D+00 IRadAn=         5 IDoV= 1 UseB2=F ITyADJ=14
 ICtDFT=  3500011 ScaDFX=  1.000000  1.000000  1.000000  1.000000
 FoFCou: FMM=F IPFlag=           0 FMFlag=      100000 FMFlg1=           0
         NFxFlg=           0 DoJE=T BraDBF=F KetDBF=T FulRan=T
         wScrn=  0.000000 ICntrl=       500 IOpCl=  0 I1Cent=   200000004 NGrid=           0
         NMat0=    1 NMatS0=      1 NMatT0=    0 NMatD0=    1 NMtDS0=    0 NMtDT0=    0
 Petite list used in FoFCou.
 Harris En= -56.7475022082784    
 JPrj=0 DoOrth=F DoCkMO=F.
 Initial guess orbital symmetries:
       Occupied  (A1) (A1) (T2) (T2) (T2)
       Virtual   (A1) (T2) (T2) (T2) (A1) (T2) (T2) (T2) (T2) (T2)
                 (T2) (E) (E) (A1) (T2) (T2) (T2) (T1) (T1) (T1)
                 (T2) (T2) (T2) (A1) (E) (E) (T2) (T2) (T2) (T2)
                 (T2) (T2) (A1) (T2) (T2) (T2) (T1) (T1) (T1) (A1)
                 (T2) (T2) (T2) (E) (E) (T1) (T1) (T1) (T2) (T2)
                 (T2) (E) (E) (A1) (T2) (T2) (T2) (E) (E) (T1)
                 (T1) (T1) (T2) (T2) (T2) (T2) (T2) (T2) (T2) (T2)
                 (T2) (A1) (T1) (T1) (T1) (E) (E) (A1) (T2) (T2)
                 (T2) (A1) (T2) (T2) (T2) (E) (E) (T1) (T1) (T1)
                 (T1) (T1) (T1) (T2) (T2) (T2) (T2) (T2) (T2) (E)
                 (E) (A1) (T2) (T2) (T2) (T2) (T2) (T2) (T1) (T1)
                 (T1) (T2) (T2) (T2) (A1) (E) (E) (T2) (T2) (T2)
                 (E) (E) (T1) (T1) (T1) (A1) (T2) (T2) (T2) (T2)
                 (T2) (T2) (A1)
 The electronic state of the initial guess is 1-A1.
 Leave Link  401 at Tue Sep 30 16:58:53 2025, MaxMem=  4294967296 cpu:               2.9 elap:               0.2
 (Enter /software/sse/easybuild/prefix/software/Gaussian/16.C.01-avx2-nsc1/g16/l502.exe)
 Keep R1 ints in memory in symmetry-blocked form, NReq=57528360.
 FoFCou: FMM=F IPFlag=           0 FMFlag=           0 FMFlg1=           0
         NFxFlg=           0 DoJE=F BraDBF=F KetDBF=F FulRan=T
         wScrn=  0.000000 ICntrl=       600 IOpCl=  0 I1Cent=           0 NGrid=           0
         NMat0=    1 NMatS0=   9591 NMatT0=    0 NMatD0=    1 NMtDS0=    0 NMtDT0=    0
 Petite list used in FoFCou.
 Closed shell SCF:
 Using DIIS extrapolation, IDIIS=  1040.
 NGot=  4294967296 LenX=  4283386271 LenY=  4283361805
 Requested convergence on RMS density matrix=1.00D-08 within 128 cycles.
 Requested convergence on MAX density matrix=1.00D-06.
 Requested convergence on             energy=1.00D-06.
 No special actions if energy rises.

 Cycle   1  Pass 1  IDiag  1:
 E= -56.5155181520976    
 DIIS: error= 5.06D-02 at cycle   1 NSaved=   1.
 NSaved= 1 IEnMin= 1 EnMin= -56.5155181520976     IErMin= 1 ErrMin= 5.06D-02
 ErrMax= 5.06D-02  0.00D+00 EMaxC= 1.00D-01 BMatC= 1.32D-01 BMatP= 1.32D-01
 IDIUse=3 WtCom= 4.94D-01 WtEn= 5.06D-01
 Coeff-Com:  0.100D+01
 Coeff-En:   0.100D+01
 Coeff:      0.100D+01
 Gap=     0.811 Goal=   None    Shift=    0.000
 GapD=    0.811 DampG=2.000 DampE=0.500 DampFc=1.0000 IDamp=-1.
 RMSDP=1.18D-03 MaxDP=4.76D-02              OVMax= 6.89D-02

 Cycle   2  Pass 1  IDiag  1:
 E= -56.5563392857776     Delta-E=       -0.040821133680 Rises=F Damp=F
 DIIS: error= 1.30D-02 at cycle   2 NSaved=   2.
 NSaved= 2 IEnMin= 2 EnMin= -56.5563392857776     IErMin= 2 ErrMin= 1.30D-02
 ErrMax= 1.30D-02  0.00D+00 EMaxC= 1.00D-01 BMatC= 1.25D-02 BMatP= 1.32D-01
 IDIUse=3 WtCom= 8.70D-01 WtEn= 1.30D-01
 Coeff-Com:  0.157D+00 0.843D+00
 Coeff-En:   0.000D+00 0.100D+01
 Coeff:      0.136D+00 0.864D+00
 Gap=     0.881 Goal=   None    Shift=    0.000
 RMSDP=4.34D-04 MaxDP=1.73D-02 DE=-4.08D-02 OVMax= 2.95D-02

 Cycle   3  Pass 1  IDiag  1:
 E= -56.5641314100594     Delta-E=       -0.007792124282 Rises=F Damp=F
 DIIS: error= 4.21D-03 at cycle   3 NSaved=   3.
 NSaved= 3 IEnMin= 3 EnMin= -56.5641314100594     IErMin= 3 ErrMin= 4.21D-03
 ErrMax= 4.21D-03  0.00D+00 EMaxC= 1.00D-01 BMatC= 9.91D-04 BMatP= 1.25D-02
 IDIUse=3 WtCom= 9.58D-01 WtEn= 4.21D-02
 Coeff-Com: -0.283D-01 0.182D+00 0.846D+00
 Coeff-En:   0.000D+00 0.000D+00 0.100D+01
 Coeff:     -0.271D-01 0.175D+00 0.852D+00
 Gap=     0.861 Goal=   None    Shift=    0.000
 RMSDP=8.51D-05 MaxDP=2.81D-03 DE=-7.79D-03 OVMax= 7.06D-03

 Cycle   4  Pass 1  IDiag  1:
 E= -56.5648406123334     Delta-E=       -0.000709202274 Rises=F Damp=F
 DIIS: error= 3.45D-04 at cycle   4 NSaved=   4.
 NSaved= 4 IEnMin= 4 EnMin= -56.5648406123334     IErMin= 4 ErrMin= 3.45D-04
 ErrMax= 3.45D-04  0.00D+00 EMaxC= 1.00D-01 BMatC= 4.72D-06 BMatP= 9.91D-04
 IDIUse=3 WtCom= 9.97D-01 WtEn= 3.45D-03
 Coeff-Com:  0.701D-02-0.642D-01-0.239D+00 0.130D+01
 Coeff-En:   0.000D+00 0.000D+00 0.000D+00 0.100D+01
 Coeff:      0.699D-02-0.640D-01-0.238D+00 0.129D+01
 Gap=     0.861 Goal=   None    Shift=    0.000
 DSYEVD-2 returned Info=          73 IAlg= 4 N=    36 NDim=   138 NE2=    31038852 trying  DSYEV.
 RMSDP=1.21D-05 MaxDP=3.42D-04 DE=-7.09D-04 OVMax= 1.05D-03

 Cycle   5  Pass 1  IDiag  1:
 E= -56.5648488587908     Delta-E=       -0.000008246457 Rises=F Damp=F
 DIIS: error= 4.54D-05 at cycle   5 NSaved=   5.
 NSaved= 5 IEnMin= 5 EnMin= -56.5648488587908     IErMin= 5 ErrMin= 4.54D-05
 ErrMax= 4.54D-05  0.00D+00 EMaxC= 1.00D-01 BMatC= 1.09D-07 BMatP= 4.72D-06
 IDIUse=1 WtCom= 1.00D+00 WtEn= 0.00D+00
 Coeff-Com: -0.543D-03 0.616D-02 0.276D-01-0.241D+00 0.121D+01
 Coeff:     -0.543D-03 0.616D-02 0.276D-01-0.241D+00 0.121D+01
 Gap=     0.861 Goal=   None    Shift=    0.000
 RMSDP=1.38D-06 MaxDP=6.92D-05 DE=-8.25D-06 OVMax= 1.50D-04

 Cycle   6  Pass 1  IDiag  1:
 E= -56.5648490135454     Delta-E=       -0.000000154755 Rises=F Damp=F
 DIIS: error= 2.76D-06 at cycle   6 NSaved=   6.
 NSaved= 6 IEnMin= 6 EnMin= -56.5648490135454     IErMin= 6 ErrMin= 2.76D-06
 ErrMax= 2.76D-06  0.00D+00 EMaxC= 1.00D-01 BMatC= 4.18D-10 BMatP= 1.09D-07
 IDIUse=1 WtCom= 1.00D+00 WtEn= 0.00D+00
 Coeff-Com:  0.397D-04-0.626D-03-0.319D-02 0.352D-01-0.240D+00 0.121D+01
 Coeff:      0.397D-04-0.626D-03-0.319D-02 0.352D-01-0.240D+00 0.121D+01
 Gap=     0.861 Goal=   None    Shift=    0.000
 RMSDP=2.42D-07 MaxDP=9.14D-06 DE=-1.55D-07 OVMax= 1.21D-05

 Cycle   7  Pass 1  IDiag  1:
 E= -56.5648490143748     Delta-E=       -0.000000000829 Rises=F Damp=F
 DIIS: error= 1.38D-07 at cycle   7 NSaved=   7.
 NSaved= 7 IEnMin= 7 EnMin= -56.5648490143748     IErMin= 7 ErrMin= 1.38D-07
 ErrMax= 1.38D-07  0.00D+00 EMaxC= 1.00D-01 BMatC= 9.62D-13 BMatP= 4.18D-10
 IDIUse=1 WtCom= 1.00D+00 WtEn= 0.00D+00
 Coeff-Com: -0.144D-05 0.341D-04 0.215D-03-0.263D-02 0.197D-01-0.125D+00
 Coeff-Com:  0.111D+01
 Coeff:     -0.144D-05 0.341D-04 0.215D-03-0.263D-02 0.197D-01-0.125D+00
 Coeff:      0.111D+01
 Gap=     0.861 Goal=   None    Shift=    0.000
 RMSDP=1.53D-08 MaxDP=8.50D-07 DE=-8.29D-10 OVMax= 4.17D-07

 Cycle   8  Pass 1  IDiag  1:
 E= -56.5648490143761     Delta-E=       -0.000000000001 Rises=F Damp=F
 DIIS: error= 9.18D-09 at cycle   8 NSaved=   8.
 NSaved= 8 IEnMin= 8 EnMin= -56.5648490143761     IErMin= 8 ErrMin= 9.18D-09
 ErrMax= 9.18D-09  0.00D+00 EMaxC= 1.00D-01 BMatC= 4.92D-15 BMatP= 9.62D-13
 IDIUse=1 WtCom= 1.00D+00 WtEn= 0.00D+00
 Coeff-Com: -0.454D-07-0.604D-06-0.971D-05 0.132D-03-0.111D-02 0.829D-02
 Coeff-Com: -0.124D+00 0.112D+01
 Coeff:     -0.454D-07-0.604D-06-0.971D-05 0.132D-03-0.111D-02 0.829D-02
 Coeff:     -0.124D+00 0.112D+01
 Gap=     0.861 Goal=   None    Shift=    0.000
 RMSDP=1.25D-09 MaxDP=1.96D-08 DE=-1.21D-12 OVMax= 2.76D-08

 SCF Done:  E(RHF) =  -56.5648490144     A.U. after    8 cycles
            NFock=  8  Conv=0.13D-08     -V/T= 2.0005
 KE= 5.653913538325D+01 PE=-1.618275056969D+02 EE= 3.212723028457D+01
 Leave Link  502 at Tue Sep 30 16:58:54 2025, MaxMem=  4294967296 cpu:               9.7 elap:               0.6
 (Enter /software/sse/easybuild/prefix/software/Gaussian/16.C.01-avx2-nsc1/g16/l601.exe)
 Copying SCF densities to generalized density rwf, IOpCl= 0 IROHF=0.
 SCF density gives NOpUse= 24 NOpAll= 24.

 **********************************************************************

            Population analysis using the SCF Density.

 **********************************************************************

 Orbital symmetries:
 BldTbl:  Degeneracy threshold= 1.00D-02
       Occupied  (A1) (A1) (T2) (T2) (T2)
       Virtual   (A1) (T2) (T2) (T2) (A1) (T2) (T2) (T2) (T2) (T2)
                 (T2) (E) (E) (A1) (T1) (T1) (T1) (T2) (T2) (T2)
                 (A1) (T2) (T2) (T2) (T2) (T2) (T2) (E) (E) (T2)
                 (T2) (T2) (A1) (T1) (T1) (T1) (T2) (T2) (T2) (A1)
                 (T2) (T2) (T2) (E) (E) (T1) (T1) (T1) (T2) (T2)
                 (T2) (E) (E) (T2) (T2) (T2) (A1) (E) (E) (T1)
                 (T1) (T1) (T2) (T2) (T2) (T2) (T2) (T2) (T2) (T2)
                 (T2) (A1) (T1) (T1) (T1) (E) (E) (A1) (T2) (T2)
                 (T2) (A1) (T2) (T2) (T2) (E) (E) (T1) (T1) (T1)
                 (T1) (T1) (T1) (T2) (T2) (T2) (T2) (T2) (T2) (E)
                 (E) (A1) (T2) (T2) (T2) (T2) (T2) (T2) (T1) (T1)
                 (T1) (T2) (T2) (T2) (A1) (E) (E) (T2) (T2) (T2)
                 (E) (E) (T1) (T1) (T1) (A1) (T2) (T2) (T2) (T2)
                 (T2) (T2) (A1)
 The electronic state is 1-A1.
 Alpha  occ. eigenvalues --  -15.93747  -1.55656  -1.00764  -1.00764  -1.00764
 Alpha virt. eigenvalues --   -0.14654  -0.09143  -0.09143  -0.09143  -0.02746
 Alpha virt. eigenvalues --   -0.01728  -0.01728  -0.01728   0.01116   0.01116
 Alpha virt. eigenvalues --    0.01116   0.02119   0.02119   0.14872   0.16627
 Alpha virt. eigenvalues --    0.16627   0.16627   0.18165   0.18165   0.18165
 Alpha virt. eigenvalues --    0.20286   0.22595   0.22595   0.22595   0.32668
 Alpha virt. eigenvalues --    0.32668   0.32668   0.33133   0.33133   0.48966
 Alpha virt. eigenvalues --    0.48966   0.48966   0.60008   0.66220   0.66220
 Alpha virt. eigenvalues --    0.66220   0.66909   0.66909   0.66909   0.73306
 Alpha virt. eigenvalues --    0.74615   0.74615   0.74615   0.82495   0.82495
 Alpha virt. eigenvalues --    0.82641   0.82641   0.82641   0.96215   0.96215
 Alpha virt. eigenvalues --    0.96215   0.99805   0.99805   1.09630   1.09630
 Alpha virt. eigenvalues --    1.09630   1.11651   1.14747   1.14747   1.45922
 Alpha virt. eigenvalues --    1.45922   1.45922   1.52067   1.52067   1.52067
 Alpha virt. eigenvalues --    1.60973   1.60973   1.60973   1.75705   1.75705
 Alpha virt. eigenvalues --    1.75705   1.85558   2.04391   2.04391   2.04391
 Alpha virt. eigenvalues --    2.11411   2.11411   2.13452   2.14174   2.14174
 Alpha virt. eigenvalues --    2.14174   3.24482   3.52797   3.52797   3.52797
 Alpha virt. eigenvalues --    3.59140   3.59140   3.84673   3.84673   3.84673
 Alpha virt. eigenvalues --    3.88917   3.88917   3.88917   4.02999   4.02999
 Alpha virt. eigenvalues --    4.02999   4.12338   4.12338   4.12338   4.16123
 Alpha virt. eigenvalues --    4.16123   4.27549   4.33253   4.33253   4.33253
 Alpha virt. eigenvalues --    4.55659   4.55659   4.55659   4.63190   4.63190
 Alpha virt. eigenvalues --    4.63190   4.68399   4.68399   4.68399   5.11830
 Alpha virt. eigenvalues --    5.29148   5.29148   5.48066   5.48066   5.48066
 Alpha virt. eigenvalues --    5.84484   5.84484   6.16514   6.16514   6.16514
 Alpha virt. eigenvalues --    6.40808   6.85289   6.85289   6.85289   7.43625
 Alpha virt. eigenvalues --    7.43625   7.43625  18.92328
          Condensed to atoms (all electrons):
               1          2          3          4          5
     1  H    0.378378   0.387134  -0.000604  -0.000604  -0.000604
     2  N    0.387134   5.396665   0.387134   0.387134   0.387134
     3  H   -0.000604   0.387134   0.378378  -0.000604  -0.000604
     4  H   -0.000604   0.387134  -0.000604   0.378378  -0.000604
     5  H   -0.000604   0.387134  -0.000604  -0.000604   0.378378
 Mulliken charges:
               1
     1  H    0.236301
     2  N    0.054797
     3  H    0.236301
     4  H    0.236301
     5  H    0.236301
 Sum of Mulliken charges =   1.00000
 Mulliken charges with hydrogens summed into heavy atoms:
               1
     2  N    1.000000
 DipInt: DoE/N= T F RetVal/Mat= T F Init=T NMatP=  1 IDeriv=0 Min/MaxMlt=  0  4
 Entering OneElI...
 OneElI was handed  4294903508 working-precision words.
 Multipole integrals L=0 to 4 MinM= 0 MaxM= 0.
 Requested accuracy = 0.1000D-12
 ShPair: Thresh= 1.00D-13 NBox=     0 BxSize= 0.00D+00 RnKept= 3.12D+00
         NSMCal=                 1275 NSMKep=                1275
 PrmmSu-InSpLW:  IPartL=    0 NPrtUS=    1 NPrtUL=    1 DoSpLW=F IThBeg=    0 IThEnd=    0 NThAct=    1.
 PrSmSu:  IncTry=   512 NBBP=           1275 NTPThr=   100 NPartT=    1 Incr=          12 LDynOK=F GPUOK=F.
 PrsmSu:  NPrtUS=   1 ThrOK=F IAlg=2 LenDen=           0 ISkipM=0 DoSpLW=F IThBeg=    0 IThEnd=    0.
 Prism:   IPart=     0 DynPar=F LinDyn=F Incr=          12.
 PRISM was handed  4294819897 working-precision words and  1275 shell-pairs
 IPart=  0 NShTot=        1275 NBatch=          36 AvBLen=        35.4
 PrsmSu-ThDecC:  IPartSL=    0    0 NPrtUSL=    1    1 IThBeg=    0 IThEnd=    0 CPU=   -1 GPU=   -1 NThAct=    1.
 PrSmSu:  NxtVal=             13.
 Electronic moments (au):
        -10.00000000         -0.00000000          0.00000000         -0.00000000
         -8.06020165         -8.06020165         -8.06020165          0.00000000
         -0.00000000          0.00000000         -0.00000000          0.00000000
         -0.00000000         -0.00000000          0.00000000         -0.00000000
          0.00000000         -0.00000000          0.00000000         -2.85348683
        -24.84653318        -24.84653318        -24.84653318         -0.00000000
         -0.00000000          0.00000000         -0.00000000         -0.00000000
          0.00000000         -9.94031582         -9.94031582         -9.94031582
         -0.00000000         -0.00000000          0.00000000
 Electronic spatial extent (au):  <R**2>=             24.1806
 DipInt: DoE/N= F T RetVal/Mat= T F Init=T NMatP=  1 IDeriv=0 Min/MaxMlt=  0  4
 Nuclear    moments (au):
         11.00000000          0.00000000          0.00000000          0.00000000
          4.85656172          4.85656172          4.85656172         -0.00000000
          0.00000000          0.00000000          0.00000000         -0.00000000
          0.00000000          0.00000000         -0.00000000          0.00000000
         -0.00000000          0.00000000         -0.00000000          5.35135020
          5.89654793          5.89654793          5.89654793          0.00000000
         -0.00000000         -0.00000000          0.00000000          0.00000000
         -0.00000000          5.89654793          5.89654793          5.89654793
          0.00000000          0.00000000          0.00000000
 Total      moments (au):
          1.00000000          0.00000000          0.00000000         -0.00000000
         -3.20363993         -3.20363993         -3.20363993         -0.00000000
          0.00000000          0.00000000          0.00000000         -0.00000000
         -0.00000000          0.00000000         -0.00000000          0.00000000
         -0.00000000          0.00000000         -0.00000000          2.49786337
        -18.94998526        -18.94998526        -18.94998526          0.00000000
         -0.00000000         -0.00000000          0.00000000          0.00000000
         -0.00000000         -4.04376789         -4.04376789         -4.04376789
          0.00000000         -0.00000000          0.00000000
 Traceless Quadrup. (au):
         -0.00000000          0.00000000          0.00000000         -0.00000000
          0.00000000          0.00000000
 Charge=              1.0000 electrons
 Dipole moment (field-independent basis, Debye):
    X=              0.0000    Y=              0.0000    Z=             -0.0000  Tot=              0.0000
 Quadrupole moment (field-independent basis, Debye-Ang):
   XX=             -4.3090   YY=             -4.3090   ZZ=             -4.3090
   XY=             -0.0000   XZ=              0.0000   YZ=              0.0000
 Traceless Quadrupole moment (field-independent basis, Debye-Ang):
   XX=             -0.0000   YY=              0.0000   ZZ=              0.0000
   XY=             -0.0000   XZ=              0.0000   YZ=              0.0000
 Octapole moment (field-independent basis, Debye-Ang**2):
  XXX=              0.0000  YYY=             -0.0000  ZZZ=             -0.0000  XYY=              0.0000
  XXY=             -0.0000  XXZ=              0.0000  XZZ=             -0.0000  YZZ=              0.0000
  YYZ=             -0.0000  XYZ=              1.7779
 Hexadecapole moment (field-independent basis, Debye-Ang**3):
 XXXX=             -7.1375 YYYY=             -7.1375 ZZZZ=             -7.1375 XXXY=              0.0000
 XXXZ=             -0.0000 YYYX=             -0.0000 YYYZ=              0.0000 ZZZX=              0.0000
 ZZZY=             -0.0000 XXYY=             -1.5231 XXZZ=             -1.5231 YYZZ=             -1.5231
 XXYZ=              0.0000 YYXZ=             -0.0000 ZZXY=              0.0000
 N-N= 1.659629101466D+01 E-N=-1.618275054783D+02  KE= 5.653913538325D+01
 Symmetry A    KE= 4.795067706619D+01
 Symmetry B1   KE= 2.862819439023D+00
 Symmetry B2   KE= 2.862819439022D+00
 Symmetry B3   KE= 2.862819439023D+00
 SetAtRh:  ITypeU=  23 NETotI=      -1 ICharg=  0 NETot=      11.
 StAtR1:  I=    1 I1=    1 IA=  1 C=   1.0 OKShel=T
                                                  S
                                                  1
 StAtR1:  I=    2 I1=    2 IA=  7 C=   7.0 OKShel=TTT
                                                  SSP
                                                  223
 StAtR1:  I=    3 I1=    3 IA=  1 C=   1.0 OKShel=T
                                                  S
                                                  1
 StAtR1:  I=    4 I1=    4 IA=  1 C=   1.0 OKShel=T
                                                  S
                                                  1
 StAtR1:  I=    5 I1=    5 IA=  1 C=   1.0 OKShel=T
                                                  S
                                                  1
          I=    1 IA=  1 I1=    1 NAtG=20 NE=   1.000 C=   1.000 Err= 2.80D-12
          I=    2 IA=  7 I1=    2 NAtG=22 NE=   7.000 C=   7.000 Err= 6.08D-13
          I=    3 IA=  1 I1=    3 NAtG=20 NE=   1.000 C=   1.000 Err= 2.80D-12
          I=    4 IA=  1 I1=    4 NAtG=20 NE=   1.000 C=   1.000 Err= 2.80D-12
          I=    5 IA=  1 I1=    5 NAtG=20 NE=   1.000 C=   1.000 Err= 2.80D-12
 Pruned (  99, 590) grid will be used in numerical quadrature.
 IPart=  0 IRanGd=          0 ScrnBf=T ScrnGd=T RCrit=4.00D+00 DoMicB=T.
 CutRad = 1000.00    CtRdIn =    0.00    XCrit =  15.00   ICut = 0
 Pruned (  99, 590) grid will be used in numerical quadrature.
 IPart=  0 Atom number   1 atomic number  1 has       23164 grid points.
 IPart=  0 Atom   1 batch    1 overlaps    5 atoms,    50 shells and     5 DB shells.   NGrid=      2838
 Pruned (  99, 590) grid will be used in numerical quadrature.
 Symmetry reduced    86 angular points to    86 for atom    1.
 Pruned (  99, 590) grid will be used in numerical quadrature.
 Pruned (  99, 590) grid will be used in numerical quadrature.
 IPart=  5 IRanGd=          0 ScrnBf=T ScrnGd=T RCrit=4.00D+00 DoMicB=T.
 Pruned (  99, 590) grid will be used in numerical quadrature.
 CutRad = 1000.00    CtRdIn =    0.00    XCrit =  15.00   ICut = 0
 Pruned (  99, 590) grid will be used in numerical quadrature.
 IPart=  1 IRanGd=          0 ScrnBf=T ScrnGd=T RCrit=4.00D+00 DoMicB=T.
 CutRad = 1000.00    CtRdIn =    0.00    XCrit =  15.00   ICut = 0
 IPart= 14 IRanGd=          0 ScrnBf=T ScrnGd=T RCrit=4.00D+00 DoMicB=T.
 CutRad = 1000.00    CtRdIn =    0.00    XCrit =  15.00   ICut = 0
 Pruned (  99, 590) grid will be used in numerical quadrature.
 Pruned (  99, 590) grid will be used in numerical quadrature.
 IPart=  4 IRanGd=          0 ScrnBf=T ScrnGd=T RCrit=4.00D+00 DoMicB=T.
 CutRad = 1000.00    CtRdIn =    0.00    XCrit =  15.00   ICut = 0
 Pruned (  99, 590) grid will be used in numerical quadrature.
 Pruned (  99, 590) grid will be used in numerical quadrature.
 Pruned (  99, 590) grid will be used in numerical quadrature.
 IPart=  7 IRanGd=          0 ScrnBf=T ScrnGd=T RCrit=4.00D+00 DoMicB=T.
 Pruned (  99, 590) grid will be used in numerical quadrature.
 Pruned (  99, 590) grid will be used in numerical quadrature.
 IPart= 13 IRanGd=          0 ScrnBf=T ScrnGd=T RCrit=4.00D+00 DoMicB=T.
 IPart=  8 IRanGd=          0 ScrnBf=T ScrnGd=T RCrit=4.00D+00 DoMicB=T.
 IPart= 14 Atom number   1 atomic number  1 has       23164 grid points.
 IPart=  6 IRanGd=          0 ScrnBf=T ScrnGd=T RCrit=4.00D+00 DoMicB=T.
 Pruned (  99, 590) grid will be used in numerical quadrature.
 IPart= 14 Atom   1 batch    4 overlaps    5 atoms,    50 shells and     5 DB shells.   NGrid=      1180
 Pruned (  99, 590) grid will be used in numerical quadrature.
 Pruned (  99, 590) grid will be used in numerical quadrature.
 Pruned (  99, 590) grid will be used in numerical quadrature.
 CutRad = 1000.00    CtRdIn =    0.00    XCrit =  15.00   ICut = 0
 IPart=  4 Atom number   1 atomic number  1 has       23164 grid points.
 IPart=  2 IRanGd=          0 ScrnBf=T ScrnGd=T RCrit=4.00D+00 DoMicB=T.
 Symmetry reduced   590 angular points to   590 for atom    1.
 IPart=  4 Atom   1 batch    5 overlaps    5 atoms,    50 shells and     5 DB shells.   NGrid=      1180
 CutRad = 1000.00    CtRdIn =    0.00    XCrit =  15.00   ICut = 0
 CutRad = 1000.00    CtRdIn =    0.00    XCrit =  15.00   ICut = 0
 Pruned (  99, 590) grid will be used in numerical quadrature.
 Pruned (  99, 590) grid will be used in numerical quadrature.
 IPart=  5 Atom number   1 atomic number  1 has       23164 grid points.
 IPart=  3 IRanGd=          0 ScrnBf=T ScrnGd=T RCrit=4.00D+00 DoMicB=T.
 CutRad = 1000.00    CtRdIn =    0.00    XCrit =  15.00   ICut = 0
 CutRad = 1000.00    CtRdIn =    0.00    XCrit =  15.00   ICut = 0
 Pruned (  99, 590) grid will be used in numerical quadrature.
 IPart=  5 Atom   1 batch    2 overlaps    5 atoms,    50 shells and     5 DB shells.   NGrid=      1552
 Pruned (  99, 590) grid will be used in numerical quadrature.
 Pruned (  99, 590) grid will be used in numerical quadrature.
 IPart=  9 IRanGd=          0 ScrnBf=T ScrnGd=T RCrit=4.00D+00 DoMicB=T.
 Pruned (  99, 590) grid will be used in numerical quadrature.
 CutRad = 1000.00    CtRdIn =    0.00    XCrit =  15.00   ICut = 0
 IPart= 15 IRanGd=          0 ScrnBf=T ScrnGd=T RCrit=4.00D+00 DoMicB=T.
 IPart=  7 Atom number   1 atomic number  1 has       23164 grid points.
 Symmetry reduced   590 angular points to   590 for atom    1.
 IPart= 10 IRanGd=          0 ScrnBf=T ScrnGd=T RCrit=4.00D+00 DoMicB=T.
 CutRad = 1000.00    CtRdIn =    0.00    XCrit =  15.00   ICut = 0
 Pruned (  99, 590) grid will be used in numerical quadrature.
 IPart= 12 IRanGd=          0 ScrnBf=T ScrnGd=T RCrit=4.00D+00 DoMicB=T.
 IPart=  8 Atom number   1 atomic number  1 has       23164 grid points.
 Symmetry reduced   194 angular points to   194 for atom    1.
 IPart=  8 Atom   1 batch   10 overlaps    5 atoms,    50 shells and     5 DB shells.   NGrid=      1180
 CutRad = 1000.00    CtRdIn =    0.00    XCrit =  15.00   ICut = 0
 IPart=  1 Atom number   1 atomic number  1 has       23164 grid points.
 Symmetry reduced   590 angular points to   590 for atom    1.
 Pruned (  99, 590) grid will be used in numerical quadrature.
 IPart= 11 IRanGd=          0 ScrnBf=T ScrnGd=T RCrit=4.00D+00 DoMicB=T.
 IPart=  7 Atom   1 batch    7 overlaps    5 atoms,    50 shells and     5 DB shells.   NGrid=      1180
 CutRad = 1000.00    CtRdIn =    0.00    XCrit =  15.00   ICut = 0
 IPart= 13 Atom number   1 atomic number  1 has       23164 grid points.
 Pruned (  99, 590) grid will be used in numerical quadrature.
 IPart= 13 Atom   1 batch    6 overlaps    5 atoms,    50 shells and     5 DB shells.   NGrid=      1180
 Pruned (  99, 590) grid will be used in numerical quadrature.
 IPart=  2 Atom number   1 atomic number  1 has       23164 grid points.
 Symmetry reduced   590 angular points to   590 for atom    1.
 IPart=  2 Atom   1 batch    8 overlaps    5 atoms,    50 shells and     5 DB shells.   NGrid=      1180
 CutRad = 1000.00    CtRdIn =    0.00    XCrit =  15.00   ICut = 0
 CutRad = 1000.00    CtRdIn =    0.00    XCrit =  15.00   ICut = 0
 Pruned (  99, 590) grid will be used in numerical quadrature.
 Pruned (  99, 590) grid will be used in numerical quadrature.
 Symmetry reduced   590 angular points to   590 for atom    1.
 IPart= 11 Atom number   1 atomic number  1 has       23164 grid points.
 IPart= 10 Atom number   1 atomic number  1 has       23164 grid points.
 IPart= 11 Atom   1 batch   14 overlaps    5 atoms,    49 shells and     5 DB shells.   NGrid=       604
 Symmetry reduced   590 angular points to   590 for atom    1.
 Pruned (  99, 590) grid will be used in numerical quadrature.
 Symmetry reduced   302 angular points to   302 for atom    1.
 IPart=  6 Atom number   1 atomic number  1 has       23164 grid points.
 IPart=  1 Atom   1 batch    3 overlaps    5 atoms,    50 shells and     5 DB shells.   NGrid=      2416
 IPart=  6 Atom   1 batch   15 overlaps    5 atoms,    46 shells and     5 DB shells.   NGrid=       604
 Symmetry reduced   302 angular points to   302 for atom    1.
 IPart= 12 Atom number   1 atomic number  1 has       23164 grid points.
 Symmetry reduced   302 angular points to   302 for atom    1.
 IPart=  9 Atom number   1 atomic number  1 has       23164 grid points.
 IPart= 12 Atom   1 batch   13 overlaps    5 atoms,    50 shells and     5 DB shells.   NGrid=       604
 IPart=  9 Atom   1 batch   11 overlaps    5 atoms,    50 shells and     5 DB shells.   NGrid=      1180
 IPart=  3 Atom number   1 atomic number  1 has       23164 grid points.
 IPart= 10 Atom   1 batch   12 overlaps    5 atoms,    50 shells and     5 DB shells.   NGrid=      1180
 Symmetry reduced   302 angular points to   302 for atom    1.
 IPart=  3 Atom   1 batch    9 overlaps    5 atoms,    50 shells and     5 DB shells.   NGrid=      1180
 Symmetry reduced   590 angular points to   590 for atom    1.
 Pruned (  99, 590) grid will be used in numerical quadrature.
 Symmetry reduced   590 angular points to   590 for atom    1.
 IPart= 15 Atom number   1 atomic number  1 has       23164 grid points.
 IPart= 15 Atom   1 batch   16 overlaps    5 atoms,    43 shells and     5 DB shells.   NGrid=       604
 Symmetry reduced   590 angular points to   590 for atom    1.
 Symmetry reduced   302 angular points to   302 for atom    1.
 IPart= 15 Atom   1 batch   17 overlaps    5 atoms,    33 shells and     5 DB shells.   NGrid=       604
 IPart=  6 Atom   1 batch   18 overlaps    5 atoms,    28 shells and     5 DB shells.   NGrid=       604
 IPart= 11 Atom   1 batch   19 overlaps    5 atoms,    16 shells and     4 DB shells.   NGrid=       604
 IPart= 12 Atom   1 batch   20 overlaps    5 atoms,    12 shells and     0 DB shells.   NGrid=       604
 IPart= 11 Atom   1 batch   21 overlaps    5 atoms,     5 shells and     0 DB shells.   NGrid=       604
 IPart= 12 Atom   1 batch   22 overlaps    5 atoms,     3 shells and     0 DB shells.   NGrid=       302
 Pruned (  99, 590) grid will be used in numerical quadrature.
 IPart=  6 Atom number   2 atomic number  7 has       23416 grid points.
 IPart=  6 Atom   2 batch    1 overlaps    5 atoms,    50 shells and     5 DB shells.   NGrid=      2408
 Symmetry reduced    86 angular points to    86 for atom    2.
 Pruned (  99, 590) grid will be used in numerical quadrature.
 Pruned (  99, 590) grid will be used in numerical quadrature.
 IPart= 12 Atom number   2 atomic number  7 has       23416 grid points.
 IPart= 15 Atom number   2 atomic number  7 has       23416 grid points.
 IPart= 12 Atom   2 batch    3 overlaps    5 atoms,    50 shells and     5 DB shells.   NGrid=      2114
 IPart= 15 Atom   2 batch    2 overlaps    5 atoms,    50 shells and     5 DB shells.   NGrid=      2522
 Symmetry reduced   302 angular points to   302 for atom    2.
 Symmetry reduced   194 angular points to   194 for atom    2.
 Pruned (  99, 590) grid will be used in numerical quadrature.
 IPart= 11 Atom number   2 atomic number  7 has       23416 grid points.
 IPart= 11 Atom   2 batch    4 overlaps    5 atoms,    50 shells and     5 DB shells.   NGrid=      1180
 Symmetry reduced   590 angular points to   590 for atom    2.
 Pruned (  99, 590) grid will be used in numerical quadrature.
 Pruned (  99, 590) grid will be used in numerical quadrature.
 IPart= 10 Atom number   2 atomic number  7 has       23416 grid points.
 IPart= 14 Atom number   2 atomic number  7 has       23416 grid points.
 IPart= 10 Atom   2 batch    5 overlaps    5 atoms,    50 shells and     5 DB shells.   NGrid=      1180
 IPart= 14 Atom   2 batch    6 overlaps    5 atoms,    50 shells and     5 DB shells.   NGrid=      1180
 Symmetry reduced   590 angular points to   590 for atom    2.
 Symmetry reduced   590 angular points to   590 for atom    2.
 Pruned (  99, 590) grid will be used in numerical quadrature.
 Pruned (  99, 590) grid will be used in numerical quadrature.
 IPart=  8 Atom number   2 atomic number  7 has       23416 grid points.
 IPart=  9 Atom number   2 atomic number  7 has       23416 grid points.
 IPart=  8 Atom   2 batch    7 overlaps    5 atoms,    50 shells and     5 DB shells.   NGrid=      1180
 IPart=  9 Atom   2 batch    8 overlaps    5 atoms,    50 shells and     5 DB shells.   NGrid=      1180
 Symmetry reduced   590 angular points to   590 for atom    2.
 Symmetry reduced   590 angular points to   590 for atom    2.
 Pruned (  99, 590) grid will be used in numerical quadrature.
 IPart= 13 Atom number   2 atomic number  7 has       23416 grid points.
 IPart= 13 Atom   2 batch    9 overlaps    5 atoms,    50 shells and     5 DB shells.   NGrid=      1180
 Symmetry reduced   590 angular points to   590 for atom    2.
 Pruned (  99, 590) grid will be used in numerical quadrature.
 IPart=  7 Atom number   2 atomic number  7 has       23416 grid points.
 IPart=  7 Atom   2 batch   10 overlaps    5 atoms,    50 shells and     5 DB shells.   NGrid=      1180
 Symmetry reduced   590 angular points to   590 for atom    2.
 Pruned (  99, 590) grid will be used in numerical quadrature.
 IPart=  4 Atom number   2 atomic number  7 has       23416 grid points.
 IPart=  4 Atom   2 batch   11 overlaps    5 atoms,    50 shells and     5 DB shells.   NGrid=      1180
 Symmetry reduced   590 angular points to   590 for atom    2.
 Pruned (  99, 590) grid will be used in numerical quadrature.
 IPart=  3 Atom number   2 atomic number  7 has       23416 grid points.
 IPart=  3 Atom   2 batch   12 overlaps    5 atoms,    49 shells and     5 DB shells.   NGrid=       590
 Symmetry reduced   590 angular points to   590 for atom    2.
 Pruned (  99, 590) grid will be used in numerical quadrature.
 IPart=  2 Atom number   2 atomic number  7 has       23416 grid points.
 IPart=  2 Atom   2 batch   13 overlaps    5 atoms,    49 shells and     5 DB shells.   NGrid=       604
 Symmetry reduced   302 angular points to   302 for atom    2.
 Pruned (  99, 590) grid will be used in numerical quadrature.
 IPart=  5 Atom number   2 atomic number  7 has       23416 grid points.
 IPart=  5 Atom   2 batch   14 overlaps    5 atoms,    49 shells and     5 DB shells.   NGrid=       604
 Symmetry reduced   302 angular points to   302 for atom    2.
 IPart=  3 Atom   2 batch   15 overlaps    5 atoms,    47 shells and     5 DB shells.   NGrid=       604
 Symmetry reduced   302 angular points to   302 for atom    2.
 IPart=  2 Atom   2 batch   16 overlaps    5 atoms,    45 shells and     5 DB shells.   NGrid=       604
 IPart=  5 Atom   2 batch   17 overlaps    5 atoms,    37 shells and     5 DB shells.   NGrid=       604
 IPart= 11 Atom   2 batch   18 overlaps    5 atoms,    30 shells and     5 DB shells.   NGrid=       604
 Symmetry reduced   302 angular points to   302 for atom    2.
 IPart=  4 Atom   2 batch   19 overlaps    5 atoms,    21 shells and     5 DB shells.   NGrid=       604
 Symmetry reduced   302 angular points to   302 for atom    2.
 IPart=  7 Atom   2 batch   20 overlaps    5 atoms,    14 shells and     4 DB shells.   NGrid=       604
 Symmetry reduced   302 angular points to   302 for atom    2.
 IPart= 14 Atom   2 batch   21 overlaps    5 atoms,     6 shells and     0 DB shells.   NGrid=       604
 Symmetry reduced   302 angular points to   302 for atom    2.
 IPart= 13 Atom   2 batch   22 overlaps    5 atoms,     4 shells and     0 DB shells.   NGrid=       604
 Symmetry reduced   302 angular points to   302 for atom    2.
 IPart=  9 Atom   2 batch   23 overlaps    5 atoms,     0 shells and     0 DB shells.   NGrid=       302
 Pruned (  99, 590) grid will be used in numerical quadrature.
 IPart=  9 Atom number   3 atomic number  1 has       23164 grid points.
 IPart=  9 Atom   3 batch    1 overlaps    5 atoms,    50 shells and     5 DB shells.   NGrid=      2838
 Pruned (  99, 590) grid will be used in numerical quadrature.
 Symmetry reduced    86 angular points to    86 for atom    3.
 IPart=  8 Atom number   3 atomic number  1 has       23164 grid points.
 IPart=  8 Atom   3 batch    2 overlaps    5 atoms,    50 shells and     5 DB shells.   NGrid=      1552
 Symmetry reduced   194 angular points to   194 for atom    3.
 Pruned (  99, 590) grid will be used in numerical quadrature.
 IPart= 10 Atom number   3 atomic number  1 has       23164 grid points.
 IPart= 10 Atom   3 batch    3 overlaps    5 atoms,    50 shells and     5 DB shells.   NGrid=      2416
 Symmetry reduced   302 angular points to   302 for atom    3.
 Pruned (  99, 590) grid will be used in numerical quadrature.
 IPart=  2 Atom number   3 atomic number  1 has       23164 grid points.
 IPart=  2 Atom   3 batch    4 overlaps    5 atoms,    50 shells and     5 DB shells.   NGrid=      1180
 Symmetry reduced   590 angular points to   590 for atom    3.
 Pruned (  99, 590) grid will be used in numerical quadrature.
 IPart=  7 Atom number   3 atomic number  1 has       23164 grid points.
 IPart=  7 Atom   3 batch    5 overlaps    5 atoms,    50 shells and     5 DB shells.   NGrid=      1180
 Symmetry reduced   590 angular points to   590 for atom    3.
 Pruned (  99, 590) grid will be used in numerical quadrature.
 IPart=  1 Atom number   2 atomic number  7 has       23416 grid points.
 Pruned (  99, 590) grid will be used in numerical quadrature.
 Pruned (  99, 590) grid will be used in numerical quadrature.
 IPart= 14 Atom number   3 atomic number  1 has       23164 grid points.
 IPart=  1 Atom number   3 atomic number  1 has       23164 grid points.
 IPart= 14 Atom   3 batch    7 overlaps    5 atoms,    50 shells and     5 DB shells.   NGrid=      1180
 IPart=  1 Atom   3 batch    6 overlaps    5 atoms,    50 shells and     5 DB shells.   NGrid=      1180
 Symmetry reduced   590 angular points to   590 for atom    3.
 Pruned (  99, 590) grid will be used in numerical quadrature.
 Symmetry reduced   590 angular points to   590 for atom    3.
 IPart=  3 Atom number   3 atomic number  1 has       23164 grid points.
 IPart=  3 Atom   3 batch    8 overlaps    5 atoms,    50 shells and     5 DB shells.   NGrid=      1180
 Symmetry reduced   590 angular points to   590 for atom    3.
 Pruned (  99, 590) grid will be used in numerical quadrature.
 IPart=  4 Atom number   3 atomic number  1 has       23164 grid points.
 IPart=  4 Atom   3 batch    9 overlaps    5 atoms,    50 shells and     5 DB shells.   NGrid=      1180
 Symmetry reduced   590 angular points to   590 for atom    3.
 Pruned (  99, 590) grid will be used in numerical quadrature.
 IPart= 13 Atom number   3 atomic number  1 has       23164 grid points.
 IPart= 13 Atom   3 batch   10 overlaps    5 atoms,    50 shells and     5 DB shells.   NGrid=      1180
 Symmetry reduced   590 angular points to   590 for atom    3.
 Pruned (  99, 590) grid will be used in numerical quadrature.
 IPart= 11 Atom number   3 atomic number  1 has       23164 grid points.
 IPart= 11 Atom   3 batch   11 overlaps    5 atoms,    50 shells and     5 DB shells.   NGrid=      1180
 Symmetry reduced   590 angular points to   590 for atom    3.
 Pruned (  99, 590) grid will be used in numerical quadrature.
 IPart=  0 Atom number   2 atomic number  7 has       23416 grid points.
 Pruned (  99, 590) grid will be used in numerical quadrature.
 IPart=  0 Atom number   3 atomic number  1 has       23164 grid points.
 IPart=  0 Atom   3 batch   12 overlaps    5 atoms,    50 shells and     5 DB shells.   NGrid=      1180
 Symmetry reduced   590 angular points to   590 for atom    3.
 Pruned (  99, 590) grid will be used in numerical quadrature.
 IPart=  5 Atom number   3 atomic number  1 has       23164 grid points.
 IPart=  5 Atom   3 batch   13 overlaps    5 atoms,    50 shells and     5 DB shells.   NGrid=       604
 Symmetry reduced   302 angular points to   302 for atom    3.
 Pruned (  99, 590) grid will be used in numerical quadrature.
 IPart= 12 Atom number   3 atomic number  1 has       23164 grid points.
 IPart= 12 Atom   3 batch   14 overlaps    5 atoms,    49 shells and     5 DB shells.   NGrid=       604
 Symmetry reduced   302 angular points to   302 for atom    3.
 Pruned (  99, 590) grid will be used in numerical quadrature.
 IPart=  6 Atom number   3 atomic number  1 has       23164 grid points.
 IPart=  6 Atom   3 batch   15 overlaps    5 atoms,    46 shells and     5 DB shells.   NGrid=       604
 Symmetry reduced   302 angular points to   302 for atom    3.
 IPart=  5 Atom   3 batch   16 overlaps    5 atoms,    43 shells and     5 DB shells.   NGrid=       604
 Pruned (  99, 590) grid will be used in numerical quadrature.
 IPart= 15 Atom number   3 atomic number  1 has       23164 grid points.
 IPart= 15 Atom   3 batch   17 overlaps    5 atoms,    33 shells and     5 DB shells.   NGrid=       604
 Symmetry reduced   302 angular points to   302 for atom    3.
 IPart=  2 Atom   3 batch   18 overlaps    5 atoms,    28 shells and     5 DB shells.   NGrid=       604
 Symmetry reduced   302 angular points to   302 for atom    3.
 IPart=  7 Atom   3 batch   19 overlaps    5 atoms,    16 shells and     4 DB shells.   NGrid=       604
 Symmetry reduced   302 angular points to   302 for atom    3.
 IPart=  1 Atom   3 batch   20 overlaps    5 atoms,    12 shells and     0 DB shells.   NGrid=       604
 IPart= 14 Atom   3 batch   21 overlaps    5 atoms,     5 shells and     0 DB shells.   NGrid=       604
 Symmetry reduced   302 angular points to   302 for atom    3.
 IPart=  4 Atom   3 batch   22 overlaps    5 atoms,     3 shells and     0 DB shells.   NGrid=       302
 Symmetry reduced   302 angular points to   302 for atom    3.
 Symmetry reduced   302 angular points to   302 for atom    3.
 Pruned (  99, 590) grid will be used in numerical quadrature.
 IPart= 12 Atom number   4 atomic number  1 has       23164 grid points.
 IPart= 12 Atom   4 batch    1 overlaps    5 atoms,    50 shells and     5 DB shells.   NGrid=      2838
 Pruned (  99, 590) grid will be used in numerical quadrature.
 Symmetry reduced    86 angular points to    86 for atom    4.
 IPart= 11 Atom number   4 atomic number  1 has       23164 grid points.
 IPart= 11 Atom   4 batch    2 overlaps    5 atoms,    50 shells and     5 DB shells.   NGrid=      1552
 Symmetry reduced   194 angular points to   194 for atom    4.
 Pruned (  99, 590) grid will be used in numerical quadrature.
 IPart=  3 Atom number   4 atomic number  1 has       23164 grid points.
 IPart=  3 Atom   4 batch    3 overlaps    5 atoms,    50 shells and     5 DB shells.   NGrid=      2416
 Symmetry reduced   302 angular points to   302 for atom    4.
 Pruned (  99, 590) grid will be used in numerical quadrature.
 IPart= 13 Atom number   4 atomic number  1 has       23164 grid points.
 Pruned (  99, 590) grid will be used in numerical quadrature.
 IPart= 13 Atom   4 batch    4 overlaps    5 atoms,    50 shells and     5 DB shells.   NGrid=      1180
 IPart=  0 Atom number   4 atomic number  1 has       23164 grid points.
 Pruned (  99, 590) grid will be used in numerical quadrature.
 IPart=  0 Atom   4 batch    5 overlaps    5 atoms,    50 shells and     5 DB shells.   NGrid=      1180
 IPart=  6 Atom number   4 atomic number  1 has       23164 grid points.
 Symmetry reduced   590 angular points to   590 for atom    4.
 Symmetry reduced   590 angular points to   590 for atom    4.
 IPart=  6 Atom   4 batch    6 overlaps    5 atoms,    50 shells and     5 DB shells.   NGrid=      1180
 Pruned (  99, 590) grid will be used in numerical quadrature.
 Symmetry reduced   590 angular points to   590 for atom    4.
 Pruned (  99, 590) grid will be used in numerical quadrature.
 IPart=  4 Atom number   4 atomic number  1 has       23164 grid points.
 IPart=  7 Atom number   4 atomic number  1 has       23164 grid points.
 IPart=  4 Atom   4 batch    7 overlaps    5 atoms,    50 shells and     5 DB shells.   NGrid=      1180
 IPart=  7 Atom   4 batch    8 overlaps    5 atoms,    50 shells and     5 DB shells.   NGrid=      1180
 Symmetry reduced   590 angular points to   590 for atom    4.
 Symmetry reduced   590 angular points to   590 for atom    4.
 Pruned (  99, 590) grid will be used in numerical quadrature.
 IPart=  1 Atom number   4 atomic number  1 has       23164 grid points.
 IPart=  1 Atom   4 batch    9 overlaps    5 atoms,    50 shells and     5 DB shells.   NGrid=      1180
 Symmetry reduced   590 angular points to   590 for atom    4.
 Pruned (  99, 590) grid will be used in numerical quadrature.
 IPart=  5 Atom number   4 atomic number  1 has       23164 grid points.
 IPart=  5 Atom   4 batch   10 overlaps    5 atoms,    50 shells and     5 DB shells.   NGrid=      1180
 Symmetry reduced   590 angular points to   590 for atom    4.
 Pruned (  99, 590) grid will be used in numerical quadrature.
 IPart= 15 Atom number   4 atomic number  1 has       23164 grid points.
 Pruned (  99, 590) grid will be used in numerical quadrature.
 IPart= 15 Atom   4 batch   11 overlaps    5 atoms,    50 shells and     5 DB shells.   NGrid=      1180
 IPart=  2 Atom number   4 atomic number  1 has       23164 grid points.
 IPart=  2 Atom   4 batch   12 overlaps    5 atoms,    50 shells and     5 DB shells.   NGrid=      1180
 Pruned (  99, 590) grid will be used in numerical quadrature.
 Symmetry reduced   590 angular points to   590 for atom    4.
 Symmetry reduced   590 angular points to   590 for atom    4.
 IPart= 14 Atom number   4 atomic number  1 has       23164 grid points.
 IPart= 14 Atom   4 batch   13 overlaps    5 atoms,    50 shells and     5 DB shells.   NGrid=       604
 Symmetry reduced   302 angular points to   302 for atom    4.
 Pruned (  99, 590) grid will be used in numerical quadrature.
 IPart=  8 Atom number   4 atomic number  1 has       23164 grid points.
 IPart=  8 Atom   4 batch   14 overlaps    5 atoms,    49 shells and     5 DB shells.   NGrid=       604
 Symmetry reduced   302 angular points to   302 for atom    4.
 IPart=  8 Atom   4 batch   15 overlaps    5 atoms,    46 shells and     5 DB shells.   NGrid=       604
 IPart= 14 Atom   4 batch   16 overlaps    5 atoms,    43 shells and     5 DB shells.   NGrid=       604
 Pruned (  99, 590) grid will be used in numerical quadrature.
 IPart= 10 Atom number   4 atomic number  1 has       23164 grid points.
 IPart= 10 Atom   4 batch   17 overlaps    5 atoms,    33 shells and     5 DB shells.   NGrid=       604
 Symmetry reduced   302 angular points to   302 for atom    4.
 IPart=  2 Atom   4 batch   18 overlaps    5 atoms,    28 shells and     5 DB shells.   NGrid=       604
 Symmetry reduced   302 angular points to   302 for atom    4.
 IPart=  0 Atom   4 batch   19 overlaps    5 atoms,    16 shells and     4 DB shells.   NGrid=       604
 Symmetry reduced   302 angular points to   302 for atom    4.
 IPart=  6 Atom   4 batch   20 overlaps    5 atoms,    12 shells and     0 DB shells.   NGrid=       604
 IPart= 13 Atom   4 batch   21 overlaps    5 atoms,     5 shells and     0 DB shells.   NGrid=       604
 Symmetry reduced   302 angular points to   302 for atom    4.
 IPart=  4 Atom   4 batch   22 overlaps    5 atoms,     3 shells and     0 DB shells.   NGrid=       302
 Symmetry reduced   302 angular points to   302 for atom    4.
 Pruned (  99, 590) grid will be used in numerical quadrature.
 Symmetry reduced   302 angular points to   302 for atom    4.
 IPart=  1 Atom number   5 atomic number  1 has       23164 grid points.
 IPart=  1 Atom   5 batch    1 overlaps    5 atoms,    50 shells and     5 DB shells.   NGrid=      2838
 Symmetry reduced    86 angular points to    86 for atom    5.
 Pruned (  99, 590) grid will be used in numerical quadrature.
 IPart=  7 Atom number   5 atomic number  1 has       23164 grid points.
 IPart=  7 Atom   5 batch    2 overlaps    5 atoms,    50 shells and     5 DB shells.   NGrid=      1552
 Symmetry reduced   194 angular points to   194 for atom    5.
 Pruned (  99, 590) grid will be used in numerical quadrature.
 Pruned (  99, 590) grid will be used in numerical quadrature.
 IPart= 15 Atom number   5 atomic number  1 has       23164 grid points.
 IPart=  8 Atom number   5 atomic number  1 has       23164 grid points.
 IPart=  8 Atom   5 batch    4 overlaps    5 atoms,    50 shells and     5 DB shells.   NGrid=      1180
 IPart= 15 Atom   5 batch    3 overlaps    5 atoms,    50 shells and     5 DB shells.   NGrid=      2416
 Symmetry reduced   590 angular points to   590 for atom    5.
 Symmetry reduced   302 angular points to   302 for atom    5.
 Pruned (  99, 590) grid will be used in numerical quadrature.
 Pruned (  99, 590) grid will be used in numerical quadrature.
 IPart= 14 Atom number   5 atomic number  1 has       23164 grid points.
 IPart=  9 Atom number   4 atomic number  1 has       23164 grid points.
 Pruned (  99, 590) grid will be used in numerical quadrature.
 IPart= 14 Atom   5 batch    5 overlaps    5 atoms,    50 shells and     5 DB shells.   NGrid=      1180
 IPart=  9 Atom number   5 atomic number  1 has       23164 grid points.
 IPart=  9 Atom   5 batch    6 overlaps    5 atoms,    50 shells and     5 DB shells.   NGrid=      1180
 Symmetry reduced   590 angular points to   590 for atom    5.
 Symmetry reduced   590 angular points to   590 for atom    5.
 Pruned (  99, 590) grid will be used in numerical quadrature.
 IPart=  5 Atom number   5 atomic number  1 has       23164 grid points.
 Pruned (  99, 590) grid will be used in numerical quadrature.
 IPart=  5 Atom   5 batch    7 overlaps    5 atoms,    50 shells and     5 DB shells.   NGrid=      1180
 IPart=  4 Atom number   5 atomic number  1 has       23164 grid points.
 IPart=  4 Atom   5 batch    8 overlaps    5 atoms,    50 shells and     5 DB shells.   NGrid=      1180
 Symmetry reduced   590 angular points to   590 for atom    5.
 Symmetry reduced   590 angular points to   590 for atom    5.
 Pruned (  99, 590) grid will be used in numerical quadrature.
 IPart=  0 Atom number   5 atomic number  1 has       23164 grid points.
 IPart=  0 Atom   5 batch    9 overlaps    5 atoms,    50 shells and     5 DB shells.   NGrid=      1180
 Symmetry reduced   590 angular points to   590 for atom    5.
 Pruned (  99, 590) grid will be used in numerical quadrature.
 IPart=  6 Atom number   5 atomic number  1 has       23164 grid points.
 IPart=  6 Atom   5 batch   10 overlaps    5 atoms,    50 shells and     5 DB shells.   NGrid=      1180
 Symmetry reduced   590 angular points to   590 for atom    5.
 Pruned (  99, 590) grid will be used in numerical quadrature.
 IPart= 10 Atom number   5 atomic number  1 has       23164 grid points.
 IPart= 10 Atom   5 batch   11 overlaps    5 atoms,    50 shells and     5 DB shells.   NGrid=      1180
 Symmetry reduced   590 angular points to   590 for atom    5.
 Pruned (  99, 590) grid will be used in numerical quadrature.
 IPart= 13 Atom number   5 atomic number  1 has       23164 grid points.
 IPart= 13 Atom   5 batch   12 overlaps    5 atoms,    50 shells and     5 DB shells.   NGrid=      1180
 Symmetry reduced   590 angular points to   590 for atom    5.
 Pruned (  99, 590) grid will be used in numerical quadrature.
 IPart=  2 Atom number   5 atomic number  1 has       23164 grid points.
 IPart=  2 Atom   5 batch   13 overlaps    5 atoms,    50 shells and     5 DB shells.   NGrid=       604
 Symmetry reduced   302 angular points to   302 for atom    5.
 Pruned (  99, 590) grid will be used in numerical quadrature.
 IPart= 11 Atom number   5 atomic number  1 has       23164 grid points.
 IPart= 11 Atom   5 batch   14 overlaps    5 atoms,    49 shells and     5 DB shells.   NGrid=       604
 Symmetry reduced   302 angular points to   302 for atom    5.
 IPart= 11 Atom   5 batch   15 overlaps    5 atoms,    46 shells and     5 DB shells.   NGrid=       604
 IPart=  2 Atom   5 batch   16 overlaps    5 atoms,    43 shells and     5 DB shells.   NGrid=       604
 Pruned (  99, 590) grid will be used in numerical quadrature.
 IPart=  3 Atom number   5 atomic number  1 has       23164 grid points.
 IPart=  3 Atom   5 batch   17 overlaps    5 atoms,    33 shells and     5 DB shells.   NGrid=       604
 Symmetry reduced   302 angular points to   302 for atom    5.
 IPart=  8 Atom   5 batch   18 overlaps    5 atoms,    28 shells and     5 DB shells.   NGrid=       604
 Symmetry reduced   302 angular points to   302 for atom    5.
 IPart=  9 Atom   5 batch   19 overlaps    5 atoms,    16 shells and     4 DB shells.   NGrid=       604
 IPart= 14 Atom   5 batch   20 overlaps    5 atoms,    12 shells and     0 DB shells.   NGrid=       604
 Symmetry reduced   302 angular points to   302 for atom    5.
 Symmetry reduced   302 angular points to   302 for atom    5.
 IPart=  0 Atom   5 batch   21 overlaps    5 atoms,     5 shells and     0 DB shells.   NGrid=       604
 IPart=  5 Atom   5 batch   22 overlaps    5 atoms,     3 shells and     0 DB shells.   NGrid=       302
 Symmetry reduced   302 angular points to   302 for atom    5.
 Symmetry reduced   302 angular points to   302 for atom    5.
 Pruned (  99, 590) grid will be used in numerical quadrature.
 IPart= 12 Atom number   5 atomic number  1 has       23164 grid points.
 There are a total of      115770 grid points.
 ElSum from          density=       10.0000007100
 ElSum from atomic densities=       11.0000023975

 Hirshfeld populations at iteration   1 (CX, CA, CB, DipXYZ):
               1          2          3          4          5          6
     1  H    0.000000   0.385209   0.385209   0.126788   0.126788   0.126788
     2  N    0.000000   3.459164   3.459164   0.000000   0.000000  -0.000000
     3  H    0.000000   0.385209   0.385209  -0.126788  -0.126788   0.126788
     4  H    0.000000   0.385209   0.385209  -0.126788   0.126788  -0.126788
     5  H    0.000000   0.385209   0.385209   0.126788  -0.126788  -0.126788
       Tot   0.000001   5.000000   5.000000  -0.000000   0.000000   0.000000

 Dip from Atomic Chgs             -0.000000  -0.000000   0.000000
         Total Dipole             -0.000000   0.000000   0.000000

 Hirshfeld charges, spin densities, dipoles, and CM5 charges using IRadAn=      5:
              Q-H        S-H        Dx         Dy         Dz        Q-CM5   
     1  H    0.229582   0.000000   0.126788   0.126788   0.126788   0.413170
     2  N    0.081671   0.000000   0.000000   0.000000  -0.000000  -0.652681
     3  H    0.229582   0.000000  -0.126788  -0.126788   0.126788   0.413170
     4  H    0.229582   0.000000  -0.126788   0.126788  -0.126788   0.413170
     5  H    0.229582   0.000000   0.126788  -0.126788  -0.126788   0.413170
       Tot   0.999999   0.000000  -0.000000   0.000000   0.000000   0.999999
 Hirshfeld charges with hydrogens summed into heavy atoms:
              Q-H       Q-CM5   
     2  N    0.999999   0.999999
 
 EQQ=  0.00000000000     EQD=  0.00000000000     EDD=-0.318618514137E-02
 EQQ+QD+DD=-0.318618514137E-02
 
 Entering OneElI...
 OneElI was handed  4294920311 working-precision words.
 Calculate electrostatic properties
    NBasis =   138  MinDer = 0  MaxDer = 0
    NGrid  =     5  NMatD  =   1
 Requested accuracy = 0.1000D-12
 ShPair: Thresh= 1.00D-13 NBox=     0 BxSize= 0.00D+00 RnKept= 3.12D+00
         NSMCal=                 1275 NSMKep=                1260
 PrmmSu-InSpLW:  IPartL=    0 NPrtUS=   16 NPrtUL=    1 DoSpLW=F IThBeg=    0 IThEnd=   15 NThAct=   16.
 PrSmSu:  IncTry=   512 NBBP=           6300 NTPThr=   100 NPartT=   16 Incr=           3 LDynOK=F GPUOK=F.
 PrsmSu:  NPrtUS=  16 ThrOK=T IAlg=2 LenDen=           0 ISkipM=0 DoSpLW=F IThBeg=    0 IThEnd=   15.
 Prism:   IPart=     0 DynPar=F LinDyn=F Incr=           3.
 PRISM was handed   268407878 working-precision words and  1260 shell-pairs
 PRISM was handed   268407878 working-precision words and  1260 shell-pairs
 PRISM was handed   268407878 working-precision words and  1260 shell-pairs
 PRISM was handed   268407878 working-precision words and  1260 shell-pairs
 PRISM was handed   268407878 working-precision words and  1260 shell-pairs
 PRISM was handed   268407878 working-precision words and  1260 shell-pairs
 PRISM was handed   268407878 working-precision words and  1260 shell-pairs
 PRISM was handed   268407878 working-precision words and  1260 shell-pairs
 PRISM was handed   268407878 working-precision words and  1260 shell-pairs
 PRISM was handed   268407878 working-precision words and  1260 shell-pairs
 PRISM was handed   268407878 working-precision words and  1260 shell-pairs
 PRISM was handed   268407878 working-precision words and  1260 shell-pairs
 PRISM was handed   268407878 working-precision words and  1260 shell-pairs
 PRISM was handed   268407878 working-precision words and  1260 shell-pairs
 PRISM was handed   268407878 working-precision words and  1260 shell-pairs
 PRISM was handed   268407878 working-precision words and  1260 shell-pairs
 IPart=  3 NShTot=         435 NBatch=          87 AvBLen=         5.0
 PrsmSu-ThDecC:  IPartSL=    3    0 NPrtUSL=   16    1 IThBeg=    0 IThEnd=   15 CPU=   -1 GPU=   -1 NThAct=   16.
 IPart=  9 NShTot=         375 NBatch=          75 AvBLen=         5.0
 PrsmSu-ThDecC:  IPartSL=    9    0 NPrtUSL=   16    1 IThBeg=    0 IThEnd=   15 CPU=   -1 GPU=   -1 NThAct=   15.
 IPart=  7 NShTot=         400 NBatch=          80 AvBLen=         5.0
 PrsmSu-ThDecC:  IPartSL=    7    0 NPrtUSL=   16    1 IThBeg=    0 IThEnd=   15 CPU=   -1 GPU=   -1 NThAct=   14.
 IPart=  4 NShTot=         415 NBatch=          83 AvBLen=         5.0
 PrsmSu-ThDecC:  IPartSL=    4    0 NPrtUSL=   16    1 IThBeg=    0 IThEnd=   15 CPU=   -1 GPU=   -1 NThAct=   13.
 IPart= 15 NShTot=         320 NBatch=          64 AvBLen=         5.0
 PrsmSu-ThDecC:  IPartSL=   15    0 NPrtUSL=   16    1 IThBeg=    0 IThEnd=   15 CPU=   -1 GPU=   -1 NThAct=   12.
 IPart= 14 NShTot=         340 NBatch=          68 AvBLen=         5.0
 IPart= 11 NShTot=         365 NBatch=          73 AvBLen=         5.0
 IPart= 12 NShTot=         350 NBatch=          70 AvBLen=         5.0
 IPart= 10 NShTot=         375 NBatch=          75 AvBLen=         5.0
 IPart=  5 NShTot=         405 NBatch=          81 AvBLen=         5.0
 IPart=  6 NShTot=         400 NBatch=          80 AvBLen=         5.0
 PrsmSu-ThDecC:  IPartSL=   14    0 NPrtUSL=   16    1 IThBeg=    0 IThEnd=   15 CPU=   -1 GPU=   -1 NThAct=   11.
 IPart=  8 NShTot=         375 NBatch=          75 AvBLen=         5.0
 IPart=  2 NShTot=         440 NBatch=          88 AvBLen=         5.0
 PrsmSu-ThDecC:  IPartSL=   12    0 NPrtUSL=   16    1 IThBeg=    0 IThEnd=   15 CPU=   -1 GPU=   -1 NThAct=   10.
 PrsmSu-ThDecC:  IPartSL=    2    0 NPrtUSL=   16    1 IThBeg=    0 IThEnd=   15 CPU=   -1 GPU=   -1 NThAct=    9.
 PrsmSu-ThDecC:  IPartSL=    6    0 NPrtUSL=   16    1 IThBeg=    0 IThEnd=   15 CPU=   -1 GPU=   -1 NThAct=    8.
 PrsmSu-ThDecC:  IPartSL=   10    0 NPrtUSL=   16    1 IThBeg=    0 IThEnd=   15 CPU=   -1 GPU=   -1 NThAct=    7.
 IPart= 13 NShTot=         350 NBatch=          70 AvBLen=         5.0
 PrsmSu-ThDecC:  IPartSL=    5    0 NPrtUSL=   16    1 IThBeg=    0 IThEnd=   15 CPU=   -1 GPU=   -1 NThAct=    6.
 IPart=  1 NShTot=         460 NBatch=          92 AvBLen=         5.0
 IPart=  0 NShTot=         495 NBatch=          99 AvBLen=         5.0
 PrsmSu-ThDecC:  IPartSL=   13    0 NPrtUSL=   16    1 IThBeg=    0 IThEnd=   15 CPU=   -1 GPU=   -1 NThAct=    5.
 PrsmSu-ThDecC:  IPartSL=    0    0 NPrtUSL=   16    1 IThBeg=    0 IThEnd=   15 CPU=   -1 GPU=   -1 NThAct=    4.
 PrsmSu-ThDecC:  IPartSL=   11    0 NPrtUSL=   16    1 IThBeg=    0 IThEnd=   15 CPU=   -1 GPU=   -1 NThAct=    3.
 PrsmSu-ThDecC:  IPartSL=    8    0 NPrtUSL=   16    1 IThBeg=    0 IThEnd=   15 CPU=   -1 GPU=   -1 NThAct=    2.
 PrsmSu-ThDecC:  IPartSL=    1    0 NPrtUSL=   16    1 IThBeg=    0 IThEnd=   15 CPU=   -1 GPU=   -1 NThAct=    1.
 PrSmSu:  NxtVal=             49.
 --------------------------------------------------------
       Center         ----      EFG at Nuclei      ----
                      3XX-RR        3YY-RR        3ZZ-RR
 --------------------------------------------------------
     1   Atom        0.000000     -0.000000      0.000000
     2   Atom        0.000000      0.000000      0.000000
     3   Atom       -0.000000      0.000000     -0.000000
     4   Atom       -0.000000      0.000000     -0.000000
     5   Atom        0.000000      0.000000      0.000000
 --------------------------------------------------------
                        XY            XZ            YZ
 --------------------------------------------------------
     1   Atom       -0.182610     -0.182610     -0.182610
     2   Atom        0.000000     -0.000000      0.000000
     3   Atom       -0.182610      0.182610      0.182610
     4   Atom        0.182610     -0.182610      0.182610
     5   Atom        0.182610      0.182610     -0.182610
 --------------------------------------------------------


 ---------------------------------------------------------------------------------
              Nuclear Quadrupole Coupling Constant in Principal Axis System
 ---------------------------------------------------------------------------------

       Atom             a.u.   MegaHertz   Gauss  10(-4) cm-1        Axes

              Baa     0.0000    -0.000    -0.000    -0.000 -0.3800  0.6925 -0.6132
     2 N(14)  Bbb     0.0000    -0.000    -0.000    -0.000  0.8724  0.0480 -0.4864
              Bcc     0.0000    -0.000    -0.000    -0.000  0.3074  0.7198  0.6224
 

 ---------------------------------------------------------------------------------

 No NMR shielding tensors so no spin-rotation constants.
 Leave Link  601 at Tue Sep 30 16:58:54 2025, MaxMem=  4294967296 cpu:               2.7 elap:               0.2
 (Enter /software/sse/easybuild/prefix/software/Gaussian/16.C.01-avx2-nsc1/g16/l602.exe)
 FitSet:  NAtFit=     5 NAtPot=     5 NAtFrz=     0 MDM=     9 TotChg=   1.00000
 Merz-Kollman atomic radii used.
 Atom Element Radius
    1     1    1.20
    2     7    1.50
    3     1    1.20
    4     1    1.20
    5     1    1.20
 Generate VDW surfaces: Layer= 4 Dens= 6 Start= 1.400 Inc= 0.200

 **********************************************************************

            Electrostatic Properties Using The SCF Density.

 **********************************************************************

       Atomic Center    1 is at   0.583090  0.583090  0.583090
       Atomic Center    2 is at   0.000000  0.000000  0.000000
       Atomic Center    3 is at  -0.583090 -0.583090  0.583090
       Atomic Center    4 is at  -0.583090  0.583090 -0.583090
       Atomic Center    5 is at   0.583090 -0.583090 -0.583090
      ESP Fit Center    6 is at   0.583090  0.583090  2.263090
      ESP Fit Center    7 is at   1.017906  0.583090  2.205845
      ESP Fit Center    8 is at   0.800498  0.959652  2.205845
      ESP Fit Center    9 is at   0.365682  0.959652  2.205845
      ESP Fit Center   10 is at   0.148274  0.583090  2.205845
      ESP Fit Center   11 is at   0.365682  0.206528  2.205845
      ESP Fit Center   12 is at   0.800498  0.206528  2.205845
      ESP Fit Center   13 is at   1.423090  0.583090  2.038013
      ESP Fit Center   14 is at   1.310551  1.003090  2.038013
      ESP Fit Center   15 is at   1.003090  1.310551  2.038013
      ESP Fit Center   16 is at   0.583090  1.423090  2.038013
      ESP Fit Center   17 is at   0.163090  1.310551  2.038013
      ESP Fit Center   18 is at  -0.144371  1.003090  2.038013
      ESP Fit Center   19 is at  -0.256910  0.583090  2.038013
      ESP Fit Center   20 is at   0.583090 -0.256910  2.038013
      ESP Fit Center   21 is at   1.003090 -0.144371  2.038013
      ESP Fit Center   22 is at   1.310551  0.163090  2.038013
      ESP Fit Center   23 is at   1.771029  0.583090  1.771029
      ESP Fit Center   24 is at   1.690810  1.012223  1.771029
      ESP Fit Center   25 is at   1.460988  1.383400  1.771029
      ESP Fit Center   26 is at   1.112600  1.646490  1.771029
      ESP Fit Center   27 is at   0.692699  1.765962  1.771029
      ESP Fit Center   28 is at   0.257995  1.725681  1.771029
      ESP Fit Center   29 is at  -0.132803  1.531086  1.771029
      ESP Fit Center   30 is at  -0.426916  1.208460  1.771029
      ESP Fit Center   31 is at   1.112600 -0.480310  1.771029
      ESP Fit Center   32 is at   1.460988 -0.217220  1.771029
      ESP Fit Center   33 is at   1.690810  0.153957  1.771029
      ESP Fit Center   34 is at   2.038013  0.583090  1.423090
      ESP Fit Center   35 is at   1.973375  1.011936  1.423090
      ESP Fit Center   36 is at   1.785204  1.402677  1.423090
      ESP Fit Center   37 is at   1.490219  1.720594  1.423090
      ESP Fit Center   38 is at   1.114633  1.937439  1.423090
      ESP Fit Center   39 is at   0.691817  2.033944  1.423090
      ESP Fit Center   40 is at   0.259339  2.001535  1.423090
      ESP Fit Center   41 is at  -0.144371  1.843090  1.423090
      ESP Fit Center   42 is at  -0.483444  1.572689  1.423090
      ESP Fit Center   43 is at   1.490219 -0.554414  1.423090
      ESP Fit Center   44 is at   1.785204 -0.236497  1.423090
      ESP Fit Center   45 is at   1.973375  0.154244  1.423090
      ESP Fit Center   46 is at   2.205845  0.583090  1.017906
      ESP Fit Center   47 is at   2.150551  1.003090  1.017906
      ESP Fit Center   48 is at   1.988437  1.394468  1.017906
      ESP Fit Center   49 is at   1.730551  1.730551  1.017906
      ESP Fit Center   50 is at   1.394468  1.988437  1.017906
      ESP Fit Center   51 is at   1.003090  2.150551  1.017906
      ESP Fit Center   52 is at   0.583090  2.205845  1.017906
      ESP Fit Center   53 is at   0.163090  2.150551  1.017906
      ESP Fit Center   54 is at  -0.228288  1.988437  1.017906
      ESP Fit Center   55 is at   1.988437 -0.228288  1.017906
      ESP Fit Center   56 is at   2.150551  0.163090  1.017906
      ESP Fit Center   57 is at   2.263090  0.583090  0.583090
      ESP Fit Center   58 is at   2.210310  1.000889  0.583090
      ESP Fit Center   59 is at   2.055285  1.392436  0.583090
      ESP Fit Center   60 is at   1.807757  1.733129  0.583090
      ESP Fit Center   61 is at   1.483279  2.001561  0.583090
      ESP Fit Center   62 is at   1.102239  2.180865  0.583090
      ESP Fit Center   63 is at   0.688578  2.259775  0.583090
      ESP Fit Center   64 is at   0.268289  2.233333  0.583090
      ESP Fit Center   65 is at  -0.132219  2.103199  0.583090
      ESP Fit Center   66 is at   2.055285 -0.226256  0.583090
      ESP Fit Center   67 is at   2.210310  0.165291  0.583090
      ESP Fit Center   68 is at   2.205845  0.583090  0.148274
      ESP Fit Center   69 is at   2.150551  1.003090  0.148274
      ESP Fit Center   70 is at   1.988437  1.394468  0.148274
      ESP Fit Center   71 is at   1.730551  1.730551  0.148274
      ESP Fit Center   72 is at   1.394468  1.988437  0.148274
      ESP Fit Center   73 is at   1.003090  2.150551  0.148274
      ESP Fit Center   74 is at   0.583090  2.205845  0.148274
      ESP Fit Center   75 is at   0.163090  2.150551  0.148274
      ESP Fit Center   76 is at   2.150551  0.163090  0.148274
      ESP Fit Center   77 is at   2.038013  0.583090 -0.256910
      ESP Fit Center   78 is at   1.973375  1.011936 -0.256910
      ESP Fit Center   79 is at   1.785204  1.402677 -0.256910
      ESP Fit Center   80 is at   1.490219  1.720594 -0.256910
      ESP Fit Center   81 is at   1.114633  1.937439 -0.256910
      ESP Fit Center   82 is at   0.691817  2.033944 -0.256910
      ESP Fit Center   83 is at   1.460988  1.383400 -0.604849
      ESP Fit Center   84 is at   0.000000  0.000000  2.100000
      ESP Fit Center   85 is at  -0.204845  0.354802  2.059649
      ESP Fit Center   86 is at   0.204845 -0.354802  2.059649
      ESP Fit Center   87 is at  -0.401818  0.695969  1.940147
      ESP Fit Center   88 is at  -0.695969  0.401818  1.940147
      ESP Fit Center   89 is at   0.401818 -0.695969  1.940147
      ESP Fit Center   90 is at   0.695969 -0.401818  1.940147
      ESP Fit Center   91 is at  -0.703092  0.931045  1.746086
      ESP Fit Center   92 is at  -0.991946  0.614187  1.746086
      ESP Fit Center   93 is at   0.862200 -0.785999  1.746086
      ESP Fit Center   94 is at  -0.616860  1.350735  1.484924
      ESP Fit Center   95 is at  -0.972419  1.122231  1.484924
      ESP Fit Center   96 is at  -1.249198  0.802811  1.484924
      ESP Fit Center   97 is at   0.616860 -1.350735  1.484924
      ESP Fit Center   98 is at   0.972419 -1.122231  1.484924
      ESP Fit Center   99 is at   1.249198 -0.802811  1.484924
      ESP Fit Center  100 is at  -0.619171  1.632619  1.166697
      ESP Fit Center  101 is at  -0.991890  1.437001  1.166697
      ESP Fit Center  102 is at  -1.306964  1.157869  1.166697
      ESP Fit Center  103 is at  -1.546083  0.811447  1.166697
      ESP Fit Center  104 is at   0.619171 -1.632619  1.166697
      ESP Fit Center  105 is at   0.991890 -1.437001  1.166697
      ESP Fit Center  106 is at   1.306964 -1.157869  1.166697
      ESP Fit Center  107 is at   1.546083 -0.811447  1.166697
      ESP Fit Center  108 is at  -0.718122  1.802351  0.803635
      ESP Fit Center  109 is at  -1.088785  1.605838  0.803635
      ESP Fit Center  110 is at  -1.408538  1.334238  0.803635
      ESP Fit Center  111 is at  -1.662429  1.000250  0.803635
      ESP Fit Center  112 is at  -1.838586  0.619492  0.803635
      ESP Fit Center  113 is at   0.519044 -1.869429  0.803635
      ESP Fit Center  114 is at   0.908781 -1.714143  0.803635
      ESP Fit Center  115 is at   1.256025 -1.478706  0.803635
[...]
 1837 Fit       0.168079
 1838 Fit       0.167064
 1839 Fit       0.169968
 1840 Fit       0.174342
 1841 Fit       0.169497
 1842 Fit       0.166048
 1843 Fit       0.164291
 1844 Fit       0.164291
 1845 Fit       0.166048
 1846 Fit       0.169497
 1847 Fit       0.174342
 1848 Fit       0.171712
 1849 Fit       0.167670
 1850 Fit       0.164746
 1851 Fit       0.162915
 1852 Fit       0.162140
 1853 Fit       0.162398
 1854 Fit       0.163696
 1855 Fit       0.166069
 1856 Fit       0.169552
 1857 Fit       0.174143
 1858 Fit       0.172737
 1859 Fit       0.168569
 1860 Fit       0.165369
 1861 Fit       0.163070
 1862 Fit       0.161609
 1863 Fit       0.160939
 1864 Fit       0.161034
 1865 Fit       0.161899
 1866 Fit       0.163564
 1867 Fit       0.166082
 1868 Fit       0.169518
 1869 Fit       0.173938
 1870 Fit       0.172568
 1871 Fit       0.168524
 1872 Fit       0.165375
 1873 Fit       0.163041
 1874 Fit       0.161452
 1875 Fit       0.160553
 1876 Fit       0.160311
 1877 Fit       0.160716
 1878 Fit       0.161783
 1879 Fit       0.163552
 1880 Fit       0.166083
 1881 Fit       0.169448
 1882 Fit       0.173728
 1883 Fit       0.173140
 1884 Fit       0.169170
 1885 Fit       0.166029
 1886 Fit       0.163642
 1887 Fit       0.161937
 1888 Fit       0.160856
 1889 Fit       0.160361
 1890 Fit       0.160431
 1891 Fit       0.161070
 1892 Fit       0.162302
 1893 Fit       0.164172
 1894 Fit       0.166741
 1895 Fit       0.170082
 1896 Fit       0.170889
 1897 Fit       0.167456
 1898 Fit       0.164831
 1899 Fit       0.162928
 1900 Fit       0.161679
 1901 Fit       0.161032
 1902 Fit       0.160961
 1903 Fit       0.161462
 1904 Fit       0.162557
 1905 Fit       0.164290
 1906 Fit       0.166727
 1907 Fit       0.169950
 1908 Fit       0.174050
 1909 Fit       0.173413
 1910 Fit       0.169633
 1911 Fit       0.166731
 1912 Fit       0.164605
 1913 Fit       0.163167
 1914 Fit       0.162358
 1915 Fit       0.162140
 1916 Fit       0.162504
 1917 Fit       0.163466
 1918 Fit       0.165069
 1919 Fit       0.167380
 1920 Fit       0.170491
 1921 Fit       0.174509
 1922 Fit       0.174746
 1923 Fit       0.170936
 1924 Fit       0.168079
 1925 Fit       0.166048
 1926 Fit       0.164746
 1927 Fit       0.164111
 1928 Fit       0.164111
 1929 Fit       0.164746
 1930 Fit       0.166048
 1931 Fit       0.168079
 1932 Fit       0.170936
 1933 Fit       0.174746
 1934 Fit       0.172893
 1935 Fit       0.170010
 1936 Fit       0.168089
 1937 Fit       0.167017
 1938 Fit       0.166729
 1939 Fit       0.167210
 1940 Fit       0.168486
 1941 Fit       0.170635
 1942 Fit       0.173783
 1943 Fit       0.173905
 1944 Fit       0.171690
 1945 Fit       0.170563
 1946 Fit       0.170439
 1947 Fit       0.171311
 1948 Fit       0.173242
 1949 Fit       0.173242
 1950 Fit       0.171311
 1951 Fit       0.170439
 1952 Fit       0.170563
 1953 Fit       0.171690
 1954 Fit       0.173905
 1955 Fit       0.173783
 1956 Fit       0.170635
 1957 Fit       0.168486
 1958 Fit       0.167210
 1959 Fit       0.166729
 1960 Fit       0.167017
 1961 Fit       0.168089
 1962 Fit       0.170010
 1963 Fit       0.172893
 1964 Fit       0.174746
 1965 Fit       0.170936
 1966 Fit       0.168079
 1967 Fit       0.166048
 1968 Fit       0.164746
 1969 Fit       0.164111
 1970 Fit       0.164111
 1971 Fit       0.164746
 1972 Fit       0.166048
 1973 Fit       0.168079
 1974 Fit       0.170936
 1975 Fit       0.174746
 1976 Fit       0.174509
 1977 Fit       0.170491
 1978 Fit       0.167380
 1979 Fit       0.165069
 1980 Fit       0.163466
 1981 Fit       0.162504
 1982 Fit       0.162140
 1983 Fit       0.162358
 1984 Fit       0.163167
 1985 Fit       0.164605
 1986 Fit       0.166731
 1987 Fit       0.169633
 1988 Fit       0.173413
 1989 Fit       0.174050
 1990 Fit       0.169950
 1991 Fit       0.166727
 1992 Fit       0.164290
 1993 Fit       0.162557
 1994 Fit       0.161462
 1995 Fit       0.160961
 1996 Fit       0.161032
 1997 Fit       0.161679
 1998 Fit       0.162928
 1999 Fit       0.164831
 2000 Fit       0.167456
 2001 Fit       0.170889
 2002 Fit       0.170082
 2003 Fit       0.166741
 2004 Fit       0.164172
 2005 Fit       0.162302
 2006 Fit       0.161070
 2007 Fit       0.160431
 2008 Fit       0.160361
 2009 Fit       0.160856
 2010 Fit       0.161937
 2011 Fit       0.163642
 2012 Fit       0.166029
 2013 Fit       0.169170
 2014 Fit       0.173140
 2015 Fit       0.173728
 2016 Fit       0.169448
 2017 Fit       0.166083
 2018 Fit       0.163552
 2019 Fit       0.161783
 2020 Fit       0.160716
 2021 Fit       0.160311
 2022 Fit       0.160553
 2023 Fit       0.161452
 2024 Fit       0.163041
 2025 Fit       0.165375
 2026 Fit       0.168524
 2027 Fit       0.172568
 2028 Fit       0.173938
 2029 Fit       0.169518
 2030 Fit       0.166082
 2031 Fit       0.163564
 2032 Fit       0.161899
 2033 Fit       0.161034
 2034 Fit       0.160939
 2035 Fit       0.161609
 2036 Fit       0.163070
 2037 Fit       0.165369
 2038 Fit       0.168569
 2039 Fit       0.172737
 2040 Fit       0.174143
 2041 Fit       0.169552
 2042 Fit       0.166069
 2043 Fit       0.163696
 2044 Fit       0.162398
 2045 Fit       0.162140
 2046 Fit       0.162915
 2047 Fit       0.164746
 2048 Fit       0.167670
 2049 Fit       0.171712
 2050 Fit       0.174342
 2051 Fit       0.169497
 2052 Fit       0.166048
 2053 Fit       0.164291
 2054 Fit       0.164291
 2055 Fit       0.166048
 2056 Fit       0.169497
 2057 Fit       0.174342
 2058 Fit       0.174746
 2059 Fit       0.169968
 2060 Fit       0.167064
 2061 Fit       0.168079
 2062 Fit       0.172391
 2063 Fit       0.170936
 2064 Fit       0.172137
 2065 Fit       0.170748
 2066 Fit       0.170378
 2067 Fit       0.170997
 2068 Fit       0.172653
 2069 Fit       0.174746
 2070 Fit       0.172074
 2071 Fit       0.169445
 2072 Fit       0.167745
 2073 Fit       0.166873
 2074 Fit       0.166777
 2075 Fit       0.167452
 2076 Fit       0.168938
 2077 Fit       0.171322
 2078 Fit       0.170936
 2079 Fit       0.174746
 2080 Fit       0.174746
 2081 Fit       0.170936
 2082 Fit       0.168079
 2083 Fit       0.166048
 2084 Fit       0.164746
 2085 Fit       0.164111
 2086 Fit       0.164111
 2087 Fit       0.164746
 2088 Fit       0.166048
 2089 Fit       0.168079
 2090 Fit       0.168079
 2091 Fit       0.171406
 2092 Fit       0.172379
 2093 Fit       0.168829
 2094 Fit       0.166131
 2095 Fit       0.164184
 2096 Fit       0.162908
 2097 Fit       0.162249
 2098 Fit       0.162176
 2099 Fit       0.162687
 2100 Fit       0.163804
 2101 Fit       0.165577
 2102 Fit       0.166048
 2103 Fit       0.169066
 2104 Fit       0.172938
 2105 Fit       0.171885
 2106 Fit       0.168235
 2107 Fit       0.165416
 2108 Fit       0.163340
 2109 Fit       0.161933
 2110 Fit       0.161139
 2111 Fit       0.160926
 2112 Fit       0.161283
 2113 Fit       0.162226
 2114 Fit       0.163794
 2115 Fit       0.164746
 2116 Fit       0.167501
 2117 Fit       0.171046
 2118 Fit       0.172066
 2119 Fit       0.168310
 2120 Fit       0.165365
 2121 Fit       0.163154
 2122 Fit       0.161610
 2123 Fit       0.160679
 2124 Fit       0.160326
 2125 Fit       0.160537
 2126 Fit       0.161321
 2127 Fit       0.162708
 2128 Fit       0.164111
 2129 Fit       0.166843
 2130 Fit       0.170429
 2131 Fit       0.171468
 2132 Fit       0.167657
 2133 Fit       0.164718
 2134 Fit       0.162576
 2135 Fit       0.161164
 2136 Fit       0.160432
 2137 Fit       0.160351
 2138 Fit       0.160919
 2139 Fit       0.162157
 2140 Fit       0.164111
 2141 Fit       0.166852
 2142 Fit       0.170528
 2143 Fit       0.171601
 2144 Fit       0.167681
 2145 Fit       0.164712
 2146 Fit       0.162628
 2147 Fit       0.161369
 2148 Fit       0.160891
 2149 Fit       0.161177
 2150 Fit       0.162238
 2151 Fit       0.164746
 2152 Fit       0.167670
 2153 Fit       0.171712
 2154 Fit       0.174143
 2155 Fit       0.169552
 2156 Fit       0.166069
 2157 Fit       0.163696
 2158 Fit       0.162398
 2159 Fit       0.162140
 2160 Fit       0.162915
 2161 Fit       0.166048
 2162 Fit       0.169497
 2163 Fit       0.174342
 2164 Fit       0.174342
 2165 Fit       0.169497
 2166 Fit       0.166048
 2167 Fit       0.164291
 2168 Fit       0.164291
 2169 Fit       0.168079
 2170 Fit       0.172391
 2171 Fit       0.174746
 2172 Fit       0.169968
 2173 Fit       0.167064
 2174 Fit       0.170936
 -----------------------------------------------------------------
 Leave Link  602 at Tue Sep 30 16:58:55 2025, MaxMem=  4294967296 cpu:               1.0 elap:               0.1
 (Enter /software/sse/easybuild/prefix/software/Gaussian/16.C.01-avx2-nsc1/g16/l701.exe)
 ... and contract with generalized density number  0.
 Compute integral first derivatives.
 Leave Link  701 at Tue Sep 30 16:58:55 2025, MaxMem=  4294967296 cpu:               2.1 elap:               0.2
 (Enter /software/sse/easybuild/prefix/software/Gaussian/16.C.01-avx2-nsc1/g16/l702.exe)
 L702 exits ... SP integral derivatives will be done elsewhere.
 Leave Link  702 at Tue Sep 30 16:58:55 2025, MaxMem=  4294967296 cpu:               0.4 elap:               0.0
 (Enter /software/sse/easybuild/prefix/software/Gaussian/16.C.01-avx2-nsc1/g16/l703.exe)
 Integral derivatives from FoFJK, PRISM(SPDF).
 Compute integral first derivatives, UseDBF=F ICtDFT=           0.
 Calling FoFJK, ICntrl=      2127 FMM=F ISym2X=1 I1Cent= 0 IOpClX= 0 NMat=1 NMatS=1 NMatT=0.
 FoFJK:  IHMeth= 1 ICntrl=    2127 DoSepK=F KAlg= 0 I1Cent=           0 FoldK=F
 IRaf=         0 NMat=       1 IRICut=       1 DoRegI=T DoRafI=F ISym2E= 1 IDoP0=0 IntGTp=1.
 FoFCou: FMM=F IPFlag=           0 FMFlag=      100000 FMFlg1=         800
         NFxFlg=           0 DoJE=F BraDBF=F KetDBF=F FulRan=T
         wScrn=  0.000000 ICntrl=      2127 IOpCl=  0 I1Cent=           0 NGrid=           0
         NMat0=    1 NMatS0=      1 NMatT0=    0 NMatD0=    1 NMtDS0=    0 NMtDT0=    0
 Petite list used in FoFCou.
 Leave Link  703 at Tue Sep 30 16:58:56 2025, MaxMem=  4294967296 cpu:               5.8 elap:               0.4
 (Enter /software/sse/easybuild/prefix/software/Gaussian/16.C.01-avx2-nsc1/g16/l716.exe)
 Dipole        = 0.00000000D+00 0.00000000D+00 0.00000000D+00
 ***** Axes restored to original set *****
 -------------------------------------------------------------------
 Center     Atomic                   Forces (Hartrees/Bohr)
 Number     Number              X              Y              Z
 -------------------------------------------------------------------
      1        1          -0.000001738    0.000001738    0.000001738
      2        7          -0.000000000   -0.000000000   -0.000000000
      3        1           0.000001738   -0.000001738    0.000001738
      4        1          -0.000001738   -0.000001738   -0.000001738
      5        1           0.000001738    0.000001738   -0.000001738
 -------------------------------------------------------------------
 Cartesian Forces:  Max     0.000001738 RMS     0.000001554
 Leave Link  716 at Tue Sep 30 16:58:56 2025, MaxMem=  4294967296 cpu:               0.5 elap:               0.0
 (Enter /software/sse/easybuild/prefix/software/Gaussian/16.C.01-avx2-nsc1/g16/l103.exe)

 GradGradGradGradGradGradGradGradGradGradGradGradGradGradGradGradGradGrad
 Berny optimization.
 FormGI is forming the generalized inverse of G from B-inverse, IUseBI=4.
 Internal  Forces:  Max     0.000003010 RMS     0.000001815
 Search for a local minimum.
 Step number   1 out of a maximum of   21
 All quantities printed in internal units (Hartrees-Bohrs-Radians)
 RMS Force = .18151D-05 SwitMx=.10000D-02 MixMth= 2
 Mixed Optimization -- En-DIIS/RFO-DIIS
 Second derivative matrix not updated -- first step.
 The second derivative matrix:
                          R1        R2        R3        R4        A1
           R1           0.45982
           R2           0.00000   0.45982
           R3           0.00000   0.00000   0.45982
           R4           0.00000   0.00000   0.00000   0.45982
           A1           0.00000   0.00000   0.00000   0.00000   0.16000
           A2           0.00000   0.00000   0.00000   0.00000   0.00000
           A3           0.00000   0.00000   0.00000   0.00000   0.00000
           A4           0.00000   0.00000   0.00000   0.00000   0.00000
           A5           0.00000   0.00000   0.00000   0.00000   0.00000
           A6           0.00000   0.00000   0.00000   0.00000   0.00000
           D1           0.00000   0.00000   0.00000   0.00000   0.00000
                          A2        A3        A4        A5        A6
           A2           0.16000
           A3           0.00000   0.16000
           A4           0.00000   0.00000   0.16000
           A5           0.00000   0.00000   0.00000   0.16000
           A6           0.00000   0.00000   0.00000   0.00000   0.16000
           D1           0.00000   0.00000   0.00000   0.00000   0.00000
                          D1
           D1           0.00897
 ITU=  0
     Eigenvalues ---    0.07609   0.16000   0.16000   0.16000   0.16000
     Eigenvalues ---    0.45982   0.45982   0.45982   0.45982
 RFO step:  Lambda= 0.00000000D+00 EMin= 7.60937506D-02
 Linear search not attempted -- first point.
 Iteration  1 RMS(Cart)=  0.00000395 RMS(Int)=  0.00000000
 Iteration  2 RMS(Cart)=  0.00000000 RMS(Int)=  0.00000000
 ITry= 1 IFail=0 DXMaxC= 3.78D-06 DCOld= 1.00D+10 DXMaxT= 3.00D-01 DXLimC= 3.00D+00 Rises=F
 ClnCor:  largest displacement from symmetrization is 5.08D-14 for atom     5.
 Variable       Old X    -DE/DX   Delta X   Delta X   Delta X     New X
                                 (Linear)    (Quad)   (Total)
    R1        1.90851   0.00000   0.00000   0.00001   0.00001   1.90852
    R2        1.90851   0.00000   0.00000   0.00001   0.00001   1.90852
    R3        1.90851   0.00000   0.00000   0.00001   0.00001   1.90852
    R4        1.90851   0.00000   0.00000   0.00001   0.00001   1.90852
    A1        1.91063   0.00000   0.00000   0.00000   0.00000   1.91063
    A2        1.91063   0.00000   0.00000   0.00000   0.00000   1.91063
    A3        1.91063  -0.00000   0.00000   0.00000   0.00000   1.91063
    A4        1.91063   0.00000   0.00000  -0.00000   0.00000   1.91063
    A5        1.91063  -0.00000   0.00000  -0.00000  -0.00000   1.91063
    A6        1.91063  -0.00000   0.00000  -0.00000   0.00000   1.91063
    D1        2.09440  -0.00000   0.00000  -0.00000   0.00000   2.09440
         Item               Value     Threshold  Converged?
 Maximum Force            0.000003     0.000015     YES
 RMS     Force            0.000002     0.000010     YES
 Maximum Displacement     0.000004     0.000060     YES
 RMS     Displacement     0.000004     0.000040     YES
 Predicted change in Energy=-3.940549D-11
 Optimization completed.
    -- Stationary point found.
                           ----------------------------
                           !   Optimized Parameters   !
                           ! (Angstroms and Degrees)  !
 --------------------------                            --------------------------
 ! Name  Definition              Value          Derivative Info.                !
 --------------------------------------------------------------------------------
 ! R1    R(1,2)                  1.0099         -DE/DX =    0.0                 !
 ! R2    R(2,3)                  1.0099         -DE/DX =    0.0                 !
 ! R3    R(2,4)                  1.0099         -DE/DX =    0.0                 !
 ! R4    R(2,5)                  1.0099         -DE/DX =    0.0                 !
 ! A1    A(1,2,3)              109.4712         -DE/DX =    0.0                 !
 ! A2    A(1,2,4)              109.4712         -DE/DX =    0.0                 !
 ! A3    A(1,2,5)              109.4712         -DE/DX =    0.0                 !
 ! A4    A(3,2,4)              109.4712         -DE/DX =    0.0                 !
 ! A5    A(3,2,5)              109.4712         -DE/DX =    0.0                 !
 ! A6    A(4,2,5)              109.4712         -DE/DX =    0.0                 !
 ! D1    D(3,2,5,4)            120.0            -DE/DX =    0.0                 !
 --------------------------------------------------------------------------------
 Lowest energy point so far.  Saving SCF results.
 Largest change from initial coordinates is atom    0       0.000 Angstoms.
 GradGradGradGradGradGradGradGradGradGradGradGradGradGradGradGradGradGrad

 Leave Link  103 at Tue Sep 30 16:58:56 2025, MaxMem=  4294967296 cpu:               0.8 elap:               0.1
 (Enter /software/sse/easybuild/prefix/software/Gaussian/16.C.01-avx2-nsc1/g16/l202.exe)
                          Input orientation:                          
 ---------------------------------------------------------------------
 Center     Atomic      Atomic             Coordinates (Angstroms)
 Number     Number       Type             X           Y           Z
 ---------------------------------------------------------------------
      1          1           0       -0.583090    0.583090    0.583090
      2          7           0        0.000000    0.000000    0.000000
      3          1           0        0.583090   -0.583090    0.583090
      4          1           0       -0.583090   -0.583090   -0.583090
      5          1           0        0.583090    0.583090   -0.583090
 ---------------------------------------------------------------------
                    Distance matrix (angstroms):
                    1          2          3          4          5
     1  H    0.000000
     2  N    1.009942   0.000000
     3  H    1.649228   1.009942   0.000000
     4  H    1.649228   1.009942   1.649228   0.000000
     5  H    1.649228   1.009942   1.649228   1.649228   0.000000
 Stoichiometry    H4N(1+)
 Framework group  TD[O(N),4C3(H)]
 Deg. of freedom     1
 Full point group                 TD      NOp  24
 RotChk:  IX=0 Diff= 3.71D-16
 Largest Abelian subgroup         D2      NOp   4
 Largest concise Abelian subgroup D2      NOp   4
                         Standard orientation:                         
 ---------------------------------------------------------------------
 Center     Atomic      Atomic             Coordinates (Angstroms)
 Number     Number       Type             X           Y           Z
 ---------------------------------------------------------------------
      1          1           0        0.583090    0.583090    0.583090
      2          7           0        0.000000    0.000000    0.000000
      3          1           0       -0.583090   -0.583090    0.583090
      4          1           0       -0.583090    0.583090   -0.583090
      5          1           0        0.583090   -0.583090   -0.583090
 ---------------------------------------------------------------------
 Rotational constants (GHZ):         184.3617759         184.3617759         184.3617759
 Leave Link  202 at Tue Sep 30 16:58:56 2025, MaxMem=  4294967296 cpu:               0.2 elap:               0.0
 (Enter /software/sse/easybuild/prefix/software/Gaussian/16.C.01-avx2-nsc1/g16/l9999.exe)

 Test job not archived.
 1\1\NSC-N88\FOpt\RHF\Aug-CC-pVTZ\H4N1(1+)\X_DAVVA\30-Sep-2025\0\\#P HF
 /aug-cc-pvtz Opt=tight Pop=(MK,Hirshfeld) iop(6/33=2) iop(6/42=6) maxd
 isk=128GB\\ammonium\\1,1\H,-0.58309,0.58309,0.58309\N,0.,0.,0.\H,0.583
 09,-0.58309,0.58309\H,-0.58309,-0.58309,-0.58309\H,0.58309,0.58309,-0.
 58309\\Version=ES64L-G16RevC.01\State=1-A1\HF=-56.564849\RMSD=1.254e-0
 9\RMSF=1.554e-06\Dipole=0.,0.,0.\Quadrupole=0.,0.,0.,0.,0.,0.\PG=TD [O
 (N1),4C3(H1)]\\@


 YOU KNOW YOU'RE A TEACHER WHEN YOU SAY 2, WRITE 3, AND MEAN 4.
 -- RONALD ANSTROM, HIGH SCHOOL TEACHER, UNDERWOOD, N.D. 1974
 Job cpu time:       0 days  0 hours  0 minutes 37.4 seconds.
 Elapsed time:       0 days  0 hours  0 minutes  2.8 seconds.
 File lengths (MBytes):  RWF=     10 Int=      0 D2E=      0 Chk=      8 Scr=      1
 Normal termination of Gaussian 16 at Tue Sep 30 16:58:56 2025.
