 Entering Gaussian System, Link 0=/software/sse/easybuild/prefix/software/Gaussian/16.C.01-avx2-nsc1/g16/g16.orig
 Input=imidazolium.wrap
 Output=imidazolium.log
 Initial command:
 /software/sse/easybuild/prefix/software/Gaussian/16.C.01-avx2-nsc1/g16/l1.exe "/scratch/local/Gau-1747993.inp" -scrdir="/scratch/local/"
 Entering Link 1 = /software/sse/easybuild/prefix/software/Gaussian/16.C.01-avx2-nsc1/g16/l1.exe PID=   1747994.
  
 Copyright (c) 1988-2019, Gaussian, Inc.  All Rights Reserved.
  
 This is part of the Gaussian(R) 16 program.  It is based on
 the Gaussian(R) 09 system (copyright 2009, Gaussian, Inc.),
 the Gaussian(R) 03 system (copyright 2003, Gaussian, Inc.),
 the Gaussian(R) 98 system (copyright 1998, Gaussian, Inc.),
 the Gaussian(R) 94 system (copyright 1995, Gaussian, Inc.),
 the Gaussian 92(TM) system (copyright 1992, Gaussian, Inc.),
 the Gaussian 90(TM) system (copyright 1990, Gaussian, Inc.),
 the Gaussian 88(TM) system (copyright 1988, Gaussian, Inc.),
 the Gaussian 86(TM) system (copyright 1986, Carnegie Mellon
 University), and the Gaussian 82(TM) system (copyright 1983,
 Carnegie Mellon University). Gaussian is a federally registered
 trademark of Gaussian, Inc.
  
 This software contains proprietary and confidential information,
 including trade secrets, belonging to Gaussian, Inc.
  
 This software is provided under written license and may be
 used, copied, transmitted, or stored only in accord with that
 written license.
  
 The following legend is applicable only to US Government
 contracts under FAR:
  
                    RESTRICTED RIGHTS LEGEND
  
 Use, reproduction and disclosure by the US Government is
 subject to restrictions as set forth in subparagraphs (a)
 and (c) of the Commercial Computer Software - Restricted
 Rights clause in FAR 52.227-19.
  
 Gaussian, Inc.
 340 Quinnipiac St., Bldg. 40, Wallingford CT 06492
  
  
 ---------------------------------------------------------------
 Warning -- This program may not be used in any manner that
 competes with the business of Gaussian, Inc. or will provide
 assistance to any competitor of Gaussian, Inc.  The licensee
 of this program is prohibited from giving any competitor of
 Gaussian, Inc. access to this program.  By using this program,
 the user acknowledges that Gaussian, Inc. is engaged in the
 business of creating and licensing software in the field of
 computational chemistry and represents and warrants to the
 licensee that it is not a competitor of Gaussian, Inc. and that
 it will not use this program in any manner prohibited above.
 ---------------------------------------------------------------
  

 Cite this work as:
 Gaussian 16, Revision C.01,
 M. J. Frisch, G. W. Trucks, H. B. Schlegel, G. E. Scuseria, 
 M. A. Robb, J. R. Cheeseman, G. Scalmani, V. Barone, 
 G. A. Petersson, H. Nakatsuji, X. Li, M. Caricato, A. V. Marenich, 
 J. Bloino, B. G. Janesko, R. Gomperts, B. Mennucci, H. P. Hratchian, 
 J. V. Ortiz, A. F. Izmaylov, J. L. Sonnenberg, D. Williams-Young, 
 F. Ding, F. Lipparini, F. Egidi, J. Goings, B. Peng, A. Petrone, 
 T. Henderson, D. Ranasinghe, V. G. Zakrzewski, J. Gao, N. Rega, 
 G. Zheng, W. Liang, M. Hada, M. Ehara, K. Toyota, R. Fukuda, 
 J. Hasegawa, M. Ishida, T. Nakajima, Y. Honda, O. Kitao, H. Nakai, 
 T. Vreven, K. Throssell, J. A. Montgomery, Jr., J. E. Peralta, 
 F. Ogliaro, M. J. Bearpark, J. J. Heyd, E. N. Brothers, K. N. Kudin, 
 V. N. Staroverov, T. A. Keith, R. Kobayashi, J. Normand, 
 K. Raghavachari, A. P. Rendell, J. C. Burant, S. S. Iyengar, 
 J. Tomasi, M. Cossi, J. M. Millam, M. Klene, C. Adamo, R. Cammi, 
 J. W. Ochterski, R. L. Martin, K. Morokuma, O. Farkas, 
 J. B. Foresman, and D. J. Fox, Gaussian, Inc., Wallingford CT, 2019.
 
 ******************************************
 Gaussian 16:  ES64L-G16RevC.01  3-Jul-2019
                30-Sep-2025 
 ******************************************
 %mem=12000MB
 %nprocshared=16
 Will use up to   16 processors via shared memory.
 %mem=32Gb
 %chk=imidazolium.chk
 ----------------------------------------------------------------------
 #P MP2/aug-cc-pvtz Opt=tight density=MP2 Pop=(MK,Hirshfeld) iop(6/33=2
 ) iop(6/42=6) maxdisk=128GB
 ----------------------------------------------------------------------
 1/7=10,18=20,19=15,38=1/1,3;
 2/9=110,12=2,17=6,18=5,40=1/2;
 3/5=16,6=1,7=10,11=9,25=1,30=1,71=1/1,2,3;
 4//1;
 5/5=2,38=5/2;
 8/6=4,10=1/1;
 9/15=2,16=-3/6;
 10/5=1/2;
 6/7=2,8=2,9=2,10=2,15=8,20=1,22=2,33=2,42=6,79=1/1,2;
 7/12=2/1,2,3,16;
 1/7=10,18=20,19=15/3(2);
 2/9=110/2;
 99//99;
 2/9=110/2;
 3/5=16,6=1,7=10,11=9,25=1,30=1,71=1/1,2,3;
 4/5=5,16=3,69=1/1;
 5/5=2,38=5/2;
 8/6=4,10=1/1;
 9/15=2,16=-3/6;
 10/5=1/2;
 7/12=2/1,2,3,16;
 1/7=10,18=20,19=15/3(-8);
 2/9=110/2;
 6/7=2,8=2,9=2,10=2,15=8,20=1,22=2,33=2,42=6,79=1/1,2;
 99/9=10/99;
 Leave Link    1 at Tue Sep 30 16:58:49 2025, MaxMem=  4294967296 cpu:               1.7 elap:               0.1
 (Enter /software/sse/easybuild/prefix/software/Gaussian/16.C.01-avx2-nsc1/g16/l101.exe)
 -----------
 imidazolium
 -----------
 Symbolic Z-matrix:
 Charge =  1 Multiplicity = 1
 C                     0.       -0.66777   0.9711 
 C                     0.        0.66777   0.9711 
 N                     0.        1.05991  -0.35192 
 C                     0.        0.       -1.12002 
 N                     0.       -1.05991  -0.35192 
 H                     0.       -1.36899   1.77359 
 H                     0.        1.36899   1.77359 
 H                     0.        1.99867  -0.68256 
 H                     0.        0.       -2.18832 
 H                     0.       -1.99867  -0.68256 
 
 ITRead=  0  0  0  0  0  0  0  0  0  0
 MicOpt= -1 -1 -1 -1 -1 -1 -1 -1 -1 -1
 NAtoms=     10 NQM=       10 NQMF=       0 NMMI=      0 NMMIF=      0
                NMic=       0 NMicF=      0.
                    Isotopes and Nuclear Properties:
 (Nuclear quadrupole moments (NQMom) in fm**2, nuclear magnetic moments (NMagM)
  in nuclear magnetons)

  Atom         1           2           3           4           5           6           7           8           9          10
 IAtWgt=          12          12          14          12          14           1           1           1           1           1
 AtmWgt=  12.0000000  12.0000000  14.0030740  12.0000000  14.0030740   1.0078250   1.0078250   1.0078250   1.0078250   1.0078250
 NucSpn=           0           0           2           0           2           1           1           1           1           1
 AtZEff=  -0.0000000  -0.0000000  -0.0000000  -0.0000000  -0.0000000  -0.0000000  -0.0000000  -0.0000000  -0.0000000  -0.0000000
 NQMom=    0.0000000   0.0000000   2.0440000   0.0000000   2.0440000   0.0000000   0.0000000   0.0000000   0.0000000   0.0000000
 NMagM=    0.0000000   0.0000000   0.4037610   0.0000000   0.4037610   2.7928460   2.7928460   2.7928460   2.7928460   2.7928460
 AtZNuc=   6.0000000   6.0000000   7.0000000   6.0000000   7.0000000   1.0000000   1.0000000   1.0000000   1.0000000   1.0000000
 Leave Link  101 at Tue Sep 30 16:58:50 2025, MaxMem=  4294967296 cpu:               5.1 elap:               0.3
 (Enter /software/sse/easybuild/prefix/software/Gaussian/16.C.01-avx2-nsc1/g16/l103.exe)

 GradGradGradGradGradGradGradGradGradGradGradGradGradGradGradGradGradGrad
 Berny optimization.
 Initialization pass.
                           ----------------------------
                           !    Initial Parameters    !
                           ! (Angstroms and Degrees)  !
 --------------------------                            --------------------------
 ! Name  Definition              Value          Derivative Info.                !
 --------------------------------------------------------------------------------
 ! R1    R(1,2)                  1.3355         estimate D2E/DX2                !
 ! R2    R(1,5)                  1.3799         estimate D2E/DX2                !
 ! R3    R(1,6)                  1.0657         estimate D2E/DX2                !
 ! R4    R(2,3)                  1.3799         estimate D2E/DX2                !
 ! R5    R(2,7)                  1.0657         estimate D2E/DX2                !
 ! R6    R(3,4)                  1.309          estimate D2E/DX2                !
 ! R7    R(3,8)                  0.9953         estimate D2E/DX2                !
 ! R8    R(4,5)                  1.309          estimate D2E/DX2                !
 ! R9    R(4,9)                  1.0683         estimate D2E/DX2                !
 ! R10   R(5,10)                 0.9953         estimate D2E/DX2                !
 ! A1    A(2,1,5)              106.5097         estimate D2E/DX2                !
 ! A2    A(2,1,6)              131.1471         estimate D2E/DX2                !
 ! A3    A(5,1,6)              122.3432         estimate D2E/DX2                !
 ! A4    A(1,2,3)              106.5097         estimate D2E/DX2                !
 ! A5    A(1,2,7)              131.1471         estimate D2E/DX2                !
 ! A6    A(3,2,7)              122.3432         estimate D2E/DX2                !
 ! A7    A(2,3,4)              109.4206         estimate D2E/DX2                !
 ! A8    A(2,3,8)              125.9124         estimate D2E/DX2                !
 ! A9    A(4,3,8)              124.667          estimate D2E/DX2                !
 ! A10   A(3,4,5)              108.1395         estimate D2E/DX2                !
 ! A11   A(3,4,9)              125.9302         estimate D2E/DX2                !
 ! A12   A(5,4,9)              125.9302         estimate D2E/DX2                !
 ! A13   A(1,5,4)              109.4206         estimate D2E/DX2                !
 ! A14   A(1,5,10)             125.9124         estimate D2E/DX2                !
 ! A15   A(4,5,10)             124.667          estimate D2E/DX2                !
 ! D1    D(5,1,2,3)              0.0            estimate D2E/DX2                !
 ! D2    D(5,1,2,7)            180.0            estimate D2E/DX2                !
 ! D3    D(6,1,2,3)            180.0            estimate D2E/DX2                !
 ! D4    D(6,1,2,7)              0.0            estimate D2E/DX2                !
 ! D5    D(2,1,5,4)              0.0            estimate D2E/DX2                !
 ! D6    D(2,1,5,10)           180.0            estimate D2E/DX2                !
 ! D7    D(6,1,5,4)            180.0            estimate D2E/DX2                !
 ! D8    D(6,1,5,10)             0.0            estimate D2E/DX2                !
 ! D9    D(1,2,3,4)              0.0            estimate D2E/DX2                !
 ! D10   D(1,2,3,8)            180.0            estimate D2E/DX2                !
 ! D11   D(7,2,3,4)            180.0            estimate D2E/DX2                !
 ! D12   D(7,2,3,8)              0.0            estimate D2E/DX2                !
 ! D13   D(2,3,4,5)              0.0            estimate D2E/DX2                !
 ! D14   D(2,3,4,9)            180.0            estimate D2E/DX2                !
 ! D15   D(8,3,4,5)            180.0            estimate D2E/DX2                !
 ! D16   D(8,3,4,9)              0.0            estimate D2E/DX2                !
 ! D17   D(3,4,5,1)              0.0            estimate D2E/DX2                !
 ! D18   D(3,4,5,10)           180.0            estimate D2E/DX2                !
 ! D19   D(9,4,5,1)            180.0            estimate D2E/DX2                !
 ! D20   D(9,4,5,10)             0.0            estimate D2E/DX2                !
 --------------------------------------------------------------------------------
 Trust Radius=3.00D-01 FncErr=1.00D-07 GrdErr=1.00D-07 EigMax=2.50D+02 EigMin=1.00D-04
 Number of steps in this run=     55 maximum allowed number of steps=    100.
 GradGradGradGradGradGradGradGradGradGradGradGradGradGradGradGradGradGrad

 Leave Link  103 at Tue Sep 30 16:58:50 2025, MaxMem=  4294967296 cpu:               0.2 elap:               0.0
 (Enter /software/sse/easybuild/prefix/software/Gaussian/16.C.01-avx2-nsc1/g16/l202.exe)
                          Input orientation:                          
 ---------------------------------------------------------------------
 Center     Atomic      Atomic             Coordinates (Angstroms)
 Number     Number       Type             X           Y           Z
 ---------------------------------------------------------------------
      1          6           0        0.000000   -0.667770    0.971100
      2          6           0        0.000000    0.667770    0.971100
      3          7           0        0.000000    1.059910   -0.351920
      4          6           0        0.000000    0.000000   -1.120020
      5          7           0        0.000000   -1.059910   -0.351920
      6          1           0        0.000000   -1.368990    1.773590
      7          1           0        0.000000    1.368990    1.773590
      8          1           0        0.000000    1.998670   -0.682560
      9          1           0        0.000000    0.000000   -2.188320
     10          1           0        0.000000   -1.998670   -0.682560
 ---------------------------------------------------------------------
                    Distance matrix (angstroms):
                    1          2          3          4          5
     1  C    0.000000
     2  C    1.335540   0.000000
     3  N    2.176065   1.379911   0.000000
     4  C    2.195154   2.195154   1.308964   0.000000
     5  N    1.379911   2.176065   2.119820   1.308964   0.000000
     6  H    1.065692   2.189151   3.227592   3.201111   2.147865
     7  H    2.189151   1.065692   2.147865   3.201111   3.227592
     8  H    3.137594   2.122707   0.995285   2.045985   3.076400
     9  H    3.229218   3.229218   2.120324   1.068300   2.120324
    10  H    2.122707   3.137594   3.076400   2.045985   0.995285
                    6          7          8          9         10
     6  H    0.000000
     7  H    2.737980   0.000000
     8  H    4.168190   2.535581   0.000000
     9  H    4.191761   4.191761   2.502398   0.000000
    10  H    2.535581   4.168190   3.997340   2.502398   0.000000
 Stoichiometry    C3H5N2(1+)
 Framework group  C2V[C2(CH),SGV(C2H4N2)]
 Deg. of freedom     9
 Full point group                 C2V     NOp   4
 Largest Abelian subgroup         C2V     NOp   4
 Largest concise Abelian subgroup C2      NOp   2
                         Standard orientation:                         
 ---------------------------------------------------------------------
 Center     Atomic      Atomic             Coordinates (Angstroms)
 Number     Number       Type             X           Y           Z
 ---------------------------------------------------------------------
      1          6           0       -0.000000    0.667770   -0.971102
      2          6           0       -0.000000   -0.667770   -0.971102
      3          7           0        0.000000   -1.059910    0.351918
      4          6           0        0.000000    0.000000    1.120018
      5          7           0        0.000000    1.059910    0.351918
      6          1           0       -0.000000    1.368990   -1.773592
      7          1           0       -0.000000   -1.368990   -1.773592
      8          1           0        0.000000   -1.998670    0.682558
      9          1           0        0.000000    0.000000    2.188318
     10          1           0        0.000000    1.998670    0.682558
 ---------------------------------------------------------------------
 Rotational constants (GHZ):           9.4888261           9.3599374           4.7119705
 Leave Link  202 at Tue Sep 30 16:58:50 2025, MaxMem=  4294967296 cpu:               0.1 elap:               0.0
 (Enter /software/sse/easybuild/prefix/software/Gaussian/16.C.01-avx2-nsc1/g16/l301.exe)
 Standard basis: Aug-CC-pVTZ (5D, 7F)
 Ernie: Thresh=  0.10000D-02 Tol=  0.10000D-05 Strict=F.
 Ernie:  15 primitive shells out of 205 were deleted.
 There are   147 symmetry adapted cartesian basis functions of A1  symmetry.
 There are    57 symmetry adapted cartesian basis functions of A2  symmetry.
 There are    68 symmetry adapted cartesian basis functions of B1  symmetry.
 There are   128 symmetry adapted cartesian basis functions of B2  symmetry.
 There are   122 symmetry adapted basis functions of A1  symmetry.
 There are    53 symmetry adapted basis functions of A2  symmetry.
 There are    62 symmetry adapted basis functions of B1  symmetry.
 There are   108 symmetry adapted basis functions of B2  symmetry.
   345 basis functions,   495 primitive gaussians,   400 cartesian basis functions
    18 alpha electrons       18 beta electrons
       nuclear repulsion energy       175.1153557190 Hartrees.
 IExCor=    0 DFT=F Ex=HF Corr=None ExCW=0 ScaHFX=  1.000000
 ScaDFX=  1.000000  1.000000  1.000000  1.000000 ScalE2=  1.000000  1.000000
 IRadAn=      5 IRanWt=     -1 IRanGd=            0 ICorTp=0 IEmpDi=  4
 NAtoms=   10 NActive=   10 NUniq=    6 SFac= 2.78D+00 NAtFMM=   60 NAOKFM=F Big=F
 Integral buffers will be    131072 words long.
 Raffenetti 1 integral format.
 Two-electron integral symmetry is turned on.
 Leave Link  301 at Tue Sep 30 16:58:51 2025, MaxMem=  4294967296 cpu:               0.8 elap:               0.1
 (Enter /software/sse/easybuild/prefix/software/Gaussian/16.C.01-avx2-nsc1/g16/l302.exe)
 NPDir=0 NMtPBC=     1 NCelOv=     1 NCel=       1 NClECP=     1 NCelD=      1
         NCelK=      1 NCelE2=     1 NClLst=     1 CellRange=     0.0.
 One-electron integrals computed using PRISM.
 One-electron integral symmetry used in STVInt
 NBasis=   345 RedAO= T EigKep=  4.39D-06  NBF=   122    53    62   108
 NBsUse=   345 1.00D-06 EigRej= -1.00D+00 NBFU=   122    53    62   108
 Leave Link  302 at Tue Sep 30 16:58:51 2025, MaxMem=  4294967296 cpu:               2.8 elap:               0.2
 (Enter /software/sse/easybuild/prefix/software/Gaussian/16.C.01-avx2-nsc1/g16/l303.exe)
 DipDrv:  MaxL=1.
 Leave Link  303 at Tue Sep 30 16:58:52 2025, MaxMem=  4294967296 cpu:               0.6 elap:               0.1
 (Enter /software/sse/easybuild/prefix/software/Gaussian/16.C.01-avx2-nsc1/g16/l401.exe)
 ExpMin= 2.53D-02 ExpMax= 1.14D+04 ExpMxC= 3.89D+02 IAcc=3 IRadAn=         5 AccDes= 0.00D+00
 Harris functional with IExCor=  205 and IRadAn=       5 diagonalized for initial guess.
 HarFok:  IExCor=  205 AccDes= 0.00D+00 IRadAn=         5 IDoV= 1 UseB2=F ITyADJ=14
 ICtDFT=  3500011 ScaDFX=  1.000000  1.000000  1.000000  1.000000
 FoFCou: FMM=F IPFlag=           0 FMFlag=      100000 FMFlg1=           0
         NFxFlg=           0 DoJE=T BraDBF=F KetDBF=T FulRan=T
         wScrn=  0.000000 ICntrl=       500 IOpCl=  0 I1Cent=   200000004 NGrid=           0
         NMat0=    1 NMatS0=      1 NMatT0=    0 NMatD0=    1 NMtDS0=    0 NMtDT0=    0
 Petite list used in FoFCou.
 Harris En= -225.565089787386    
 JPrj=0 DoOrth=F DoCkMO=F.
 Initial guess orbital symmetries:
       Occupied  (B2) (A1) (A1) (B2) (A1) (A1) (B2) (A1) (A1) (B2)
                 (A1) (B2) (A1) (B2) (B1) (A1) (A2) (B1)
       Virtual   (B1) (A2) (A1) (B2) (A1) (A1) (B2) (A1) (B1) (A1)
                 (B1) (A2) (A1) (B2) (B2) (A1) (B2) (A1) (B2) (A1)
                 (A1) (B2) (A2) (B1) (A1) (A1) (B2) (B1) (B2) (B2)
                 (A1) (A1) (A1) (B1) (B2) (A1) (A2) (B1) (B2) (B2)
                 (B2) (A2) (B1) (A1) (A2) (A1) (A1) (B2) (A1) (A1)
                 (B1) (A2) (B2) (B2) (A1) (B1) (B1) (B2) (A1) (B2)
                 (A1) (B2) (A1) (A1) (A2) (A1) (B2) (B2) (B1) (B2)
                 (B2) (A2) (B1) (A1) (A1) (A2) (B1) (B2) (A2) (B2)
                 (A1) (A1) (A1) (B2) (A1) (B1) (A1) (B2) (B1) (A2)
                 (B2) (A1) (B1) (B1) (B2) (A1) (A1) (A2) (A1) (B2)
                 (A2) (B1) (A1) (B2) (A2) (A1) (B2) (A1) (B1) (A2)
                 (B2) (A1) (B1) (B2) (B1) (A2) (A1) (B2) (A1) (B2)
                 (A1) (B1) (B2) (B2) (A2) (A1) (B2) (B1) (A1) (A2)
                 (A1) (B1) (A2) (B2) (B2) (A1) (A1) (A2) (B1) (B2)
                 (B1) (A1) (B2) (A1) (A2) (A1) (B2) (B1) (A1) (B2)
                 (B1) (A1) (A2) (A2) (B1) (A1) (B2) (A1) (A1) (B2)
                 (A2) (B2) (B2) (B1) (A1) (A1) (B2) (A1) (B1) (A2)
                 (B2) (A2) (B1) (A1) (B2) (B2) (A2) (B2) (A1) (A1)
                 (B2) (B1) (A1) (B2) (A2) (B1) (A1) (B1) (B2) (B2)
                 (A1) (A1) (A2) (B2) (B2) (B1) (B2) (A1) (A2) (A1)
                 (B1) (B2) (B2) (A1) (B1) (A2) (A1) (A1) (A1) (B1)
                 (B1) (B2) (A1) (B1) (B2) (A2) (B1) (A1) (A2) (B2)
                 (A1) (A2) (B1) (B2) (A1) (A1) (B1) (A1) (A2) (A2)
                 (B2) (A1) (B2) (A1) (B1) (A1) (A2) (B2) (A1) (B2)
                 (A2) (B2) (B1) (A1) (A1) (B2) (A2) (A1) (B2) (A2)
                 (B1) (B1) (B2) (A2) (A1) (B1) (B2) (B2) (A2) (A1)
                 (B2) (A1) (B2) (A1) (B1) (A1) (A1) (A2) (B1) (B1)
                 (B2) (B2) (A1) (A2) (A1) (A1) (B2) (B2) (B1) (B2)
                 (A2) (B1) (A1) (B1) (B2) (A2) (B1) (A1) (B2) (A2)
                 (B2) (A2) (B1) (A1) (B1) (B2) (A1) (B2) (A2) (A1)
                 (A1) (A1) (A2) (B2) (A2) (B2) (A1) (B1) (A1) (B2)
                 (B2) (B2) (A1) (A1) (B2) (B2) (A1) (A1) (B2) (B2)
                 (B2) (A1) (A1) (B2) (A1) (B2) (A1)
 The electronic state of the initial guess is 1-A1.
 Leave Link  401 at Tue Sep 30 16:58:53 2025, MaxMem=  4294967296 cpu:               4.9 elap:               0.3
 (Enter /software/sse/easybuild/prefix/software/Gaussian/16.C.01-avx2-nsc1/g16/l502.exe)
 Keep R1 ints in memory in symmetry-blocked form, NReq=2232411191.
 FoFCou: FMM=F IPFlag=           0 FMFlag=           0 FMFlg1=           0
         NFxFlg=           0 DoJE=F BraDBF=F KetDBF=F FulRan=T
         wScrn=  0.000000 ICntrl=       600 IOpCl=  0 I1Cent=           0 NGrid=           0
         NMat0=    1 NMatS0=  59685 NMatT0=    0 NMatD0=    1 NMtDS0=    0 NMtDT0=    0
 Petite list used in FoFCou.
 Closed shell SCF:
 Using DIIS extrapolation, IDIIS=  1040.
 NGot=  4294967296 LenX=  3843407806 LenY=  3843247365
 Requested convergence on RMS density matrix=1.00D-08 within 128 cycles.
 Requested convergence on MAX density matrix=1.00D-06.
 Requested convergence on             energy=1.00D-06.
 No special actions if energy rises.

 Cycle   1  Pass 1  IDiag  1:
 E= -225.126106695557    
 DIIS: error= 2.84D-02 at cycle   1 NSaved=   1.
 NSaved= 1 IEnMin= 1 EnMin= -225.126106695557     IErMin= 1 ErrMin= 2.84D-02
 ErrMax= 2.84D-02  0.00D+00 EMaxC= 1.00D-01 BMatC= 4.15D-01 BMatP= 4.15D-01
 IDIUse=3 WtCom= 7.16D-01 WtEn= 2.84D-01
 Coeff-Com:  0.100D+01
 Coeff-En:   0.100D+01
 Coeff:      0.100D+01
 Gap=     0.409 Goal=   None    Shift=    0.000
 GapD=    0.409 DampG=2.000 DampE=0.500 DampFc=1.0000 IDamp=-1.
 RMSDP=1.79D-03 MaxDP=1.25D-01              OVMax= 1.07D-01

 Cycle   2  Pass 1  IDiag  1:
 E= -225.265039641244     Delta-E=       -0.138932945687 Rises=F Damp=F
 DIIS: error= 1.09D-02 at cycle   2 NSaved=   2.
 NSaved= 2 IEnMin= 2 EnMin= -225.265039641244     IErMin= 2 ErrMin= 1.09D-02
 ErrMax= 1.09D-02  0.00D+00 EMaxC= 1.00D-01 BMatC= 1.90D-02 BMatP= 4.15D-01
 IDIUse=3 WtCom= 8.91D-01 WtEn= 1.09D-01
 Coeff-Com:  0.487D-01 0.951D+00
 Coeff-En:   0.000D+00 0.100D+01
 Coeff:      0.434D-01 0.957D+00
 Gap=     0.495 Goal=   None    Shift=    0.000
 RMSDP=4.67D-04 MaxDP=2.37D-02 DE=-1.39D-01 OVMax= 5.69D-02

 Cycle   3  Pass 1  IDiag  1:
 E= -225.278339938480     Delta-E=       -0.013300297235 Rises=F Damp=F
 DIIS: error= 4.45D-03 at cycle   3 NSaved=   3.
 NSaved= 3 IEnMin= 3 EnMin= -225.278339938480     IErMin= 3 ErrMin= 4.45D-03
 ErrMax= 4.45D-03  0.00D+00 EMaxC= 1.00D-01 BMatC= 3.69D-03 BMatP= 1.90D-02
 IDIUse=3 WtCom= 9.56D-01 WtEn= 4.45D-02
 Coeff-Com: -0.248D-01 0.282D+00 0.743D+00
 Coeff-En:   0.000D+00 0.000D+00 0.100D+01
 Coeff:     -0.237D-01 0.269D+00 0.755D+00
 Gap=     0.458 Goal=   None    Shift=    0.000
 RMSDP=1.28D-04 MaxDP=3.33D-03 DE=-1.33D-02 OVMax= 1.45D-02

 Cycle   4  Pass 1  IDiag  1:
 E= -225.281577408177     Delta-E=       -0.003237469697 Rises=F Damp=F
 DIIS: error= 1.28D-03 at cycle   4 NSaved=   4.
 NSaved= 4 IEnMin= 4 EnMin= -225.281577408177     IErMin= 4 ErrMin= 1.28D-03
 ErrMax= 1.28D-03  0.00D+00 EMaxC= 1.00D-01 BMatC= 5.34D-05 BMatP= 3.69D-03
 IDIUse=3 WtCom= 9.87D-01 WtEn= 1.28D-02
 Coeff-Com: -0.295D-02 0.473D-02 0.609D-01 0.937D+00
 Coeff-En:   0.000D+00 0.000D+00 0.000D+00 0.100D+01
 Coeff:     -0.291D-02 0.467D-02 0.601D-01 0.938D+00
 Gap=     0.457 Goal=   None    Shift=    0.000
 RMSDP=2.63D-05 MaxDP=1.69D-03 DE=-3.24D-03 OVMax= 6.79D-03

 Cycle   5  Pass 1  IDiag  1:
 E= -225.281697343781     Delta-E=       -0.000119935604 Rises=F Damp=F
 DIIS: error= 5.71D-04 at cycle   5 NSaved=   5.
 NSaved= 5 IEnMin= 5 EnMin= -225.281697343781     IErMin= 5 ErrMin= 5.71D-04
 ErrMax= 5.71D-04  0.00D+00 EMaxC= 1.00D-01 BMatC= 1.63D-05 BMatP= 5.34D-05
 IDIUse=3 WtCom= 9.94D-01 WtEn= 5.71D-03
 Coeff-Com:  0.207D-02-0.282D-01-0.762D-01 0.136D+00 0.966D+00
 Coeff-En:   0.000D+00 0.000D+00 0.000D+00 0.000D+00 0.100D+01
 Coeff:      0.205D-02-0.281D-01-0.758D-01 0.135D+00 0.967D+00
 Gap=     0.457 Goal=   None    Shift=    0.000
 RMSDP=1.45D-05 MaxDP=6.14D-04 DE=-1.20D-04 OVMax= 2.61D-03

 Cycle   6  Pass 1  IDiag  1:
 E= -225.281735101656     Delta-E=       -0.000037757876 Rises=F Damp=F
 DIIS: error= 2.93D-04 at cycle   6 NSaved=   6.
 NSaved= 6 IEnMin= 6 EnMin= -225.281735101656     IErMin= 6 ErrMin= 2.93D-04
 ErrMax= 2.93D-04  0.00D+00 EMaxC= 1.00D-01 BMatC= 2.15D-06 BMatP= 1.63D-05
 IDIUse=3 WtCom= 9.97D-01 WtEn= 2.93D-03
 Coeff-Com:  0.563D-03-0.162D-02-0.140D-01-0.126D+00-0.140D+00 0.128D+01
 Coeff-En:   0.000D+00 0.000D+00 0.000D+00 0.000D+00 0.000D+00 0.100D+01
 Coeff:      0.562D-03-0.162D-02-0.140D-01-0.126D+00-0.139D+00 0.128D+01
 Gap=     0.457 Goal=   None    Shift=    0.000
 RMSDP=9.27D-06 MaxDP=5.61D-04 DE=-3.78D-05 OVMax= 2.65D-03

 Cycle   7  Pass 1  IDiag  1:
 E= -225.281745984029     Delta-E=       -0.000010882373 Rises=F Damp=F
 DIIS: error= 6.81D-05 at cycle   7 NSaved=   7.
 NSaved= 7 IEnMin= 7 EnMin= -225.281745984029     IErMin= 7 ErrMin= 6.81D-05
 ErrMax= 6.81D-05  0.00D+00 EMaxC= 1.00D-01 BMatC= 3.32D-07 BMatP= 2.15D-06
 IDIUse=1 WtCom= 1.00D+00 WtEn= 0.00D+00
 Coeff-Com: -0.447D-03 0.481D-02 0.146D-01 0.436D-01-0.164D+00-0.351D+00
 Coeff-Com:  0.145D+01
 Coeff:     -0.447D-03 0.481D-02 0.146D-01 0.436D-01-0.164D+00-0.351D+00
 Coeff:      0.145D+01
 Gap=     0.457 Goal=   None    Shift=    0.000
 RMSDP=3.87D-06 MaxDP=2.08D-04 DE=-1.09D-05 OVMax= 1.05D-03

 Cycle   8  Pass 1  IDiag  1:
 E= -225.281747278452     Delta-E=       -0.000001294423 Rises=F Damp=F
 DIIS: error= 6.03D-06 at cycle   8 NSaved=   8.
 NSaved= 8 IEnMin= 8 EnMin= -225.281747278452     IErMin= 8 ErrMin= 6.03D-06
 ErrMax= 6.03D-06  0.00D+00 EMaxC= 1.00D-01 BMatC= 7.91D-09 BMatP= 3.32D-07
 IDIUse=1 WtCom= 1.00D+00 WtEn= 0.00D+00
 Coeff-Com: -0.765D-04 0.658D-03 0.191D-02 0.866D-02-0.165D-01-0.694D-01
 Coeff-Com:  0.119D+00 0.955D+00
 Coeff:     -0.765D-04 0.658D-03 0.191D-02 0.866D-02-0.165D-01-0.694D-01
 Coeff:      0.119D+00 0.955D+00
 Gap=     0.457 Goal=   None    Shift=    0.000
 RMSDP=3.65D-07 MaxDP=1.84D-05 DE=-1.29D-06 OVMax= 8.82D-05

 Cycle   9  Pass 1  IDiag  1:
 E= -225.281747291681     Delta-E=       -0.000000013229 Rises=F Damp=F
 DIIS: error= 2.34D-06 at cycle   9 NSaved=   9.
 NSaved= 9 IEnMin= 9 EnMin= -225.281747291681     IErMin= 9 ErrMin= 2.34D-06
 ErrMax= 2.34D-06  0.00D+00 EMaxC= 1.00D-01 BMatC= 9.73D-10 BMatP= 7.91D-09
 IDIUse=1 WtCom= 1.00D+00 WtEn= 0.00D+00
 Coeff-Com:  0.287D-04-0.351D-03-0.113D-02-0.217D-02 0.136D-01 0.254D-01
 Coeff-Com: -0.130D+00 0.210D+00 0.884D+00
 Coeff:      0.287D-04-0.351D-03-0.113D-02-0.217D-02 0.136D-01 0.254D-01
 Coeff:     -0.130D+00 0.210D+00 0.884D+00
 Gap=     0.457 Goal=   None    Shift=    0.000
 RMSDP=9.35D-08 MaxDP=4.93D-06 DE=-1.32D-08 OVMax= 9.92D-06

 Cycle  10  Pass 1  IDiag  1:
 E= -225.281747292860     Delta-E=       -0.000000001179 Rises=F Damp=F
 DIIS: error= 4.95D-07 at cycle  10 NSaved=  10.
 NSaved=10 IEnMin=10 EnMin= -225.281747292860     IErMin=10 ErrMin= 4.95D-07
 ErrMax= 4.95D-07  0.00D+00 EMaxC= 1.00D-01 BMatC= 2.80D-11 BMatP= 9.73D-10
 IDIUse=1 WtCom= 1.00D+00 WtEn= 0.00D+00
 Coeff-Com: -0.913D-06 0.244D-04 0.101D-03-0.557D-04-0.197D-02-0.290D-03
 Coeff-Com:  0.156D-01-0.865D-01-0.153D+00 0.123D+01
 Coeff:     -0.913D-06 0.244D-04 0.101D-03-0.557D-04-0.197D-02-0.290D-03
 Coeff:      0.156D-01-0.865D-01-0.153D+00 0.123D+01
 Gap=     0.457 Goal=   None    Shift=    0.000
 RMSDP=2.50D-08 MaxDP=9.45D-07 DE=-1.18D-09 OVMax= 3.15D-06

 Cycle  11  Pass 1  IDiag  1:
 E= -225.281747292917     Delta-E=       -0.000000000057 Rises=F Damp=F
 DIIS: error= 1.11D-07 at cycle  11 NSaved=  11.
 NSaved=11 IEnMin=11 EnMin= -225.281747292917     IErMin=11 ErrMin= 1.11D-07
 ErrMax= 1.11D-07  0.00D+00 EMaxC= 1.00D-01 BMatC= 8.09D-13 BMatP= 2.80D-11
 IDIUse=1 WtCom= 1.00D+00 WtEn= 0.00D+00
 Coeff-Com: -0.860D-06 0.100D-04 0.308D-04 0.114D-03-0.304D-03-0.979D-03
 Coeff-Com:  0.365D-02 0.745D-03-0.167D-01-0.129D+00 0.114D+01
 Coeff:     -0.860D-06 0.100D-04 0.308D-04 0.114D-03-0.304D-03-0.979D-03
 Coeff:      0.365D-02 0.745D-03-0.167D-01-0.129D+00 0.114D+01
 Gap=     0.457 Goal=   None    Shift=    0.000
 RMSDP=4.32D-09 MaxDP=1.53D-07 DE=-5.66D-11 OVMax= 8.15D-07

 SCF Done:  E(RHF) =  -225.281747293     A.U. after   11 cycles
            NFock= 11  Conv=0.43D-08     -V/T= 2.0004
 KE= 2.251862240816D+02 PE=-8.677453048110D+02 EE= 2.421619777175D+02
 Leave Link  502 at Tue Sep 30 16:59:03 2025, MaxMem=  4294967296 cpu:             135.4 elap:              10.2
 (Enter /software/sse/easybuild/prefix/software/Gaussian/16.C.01-avx2-nsc1/g16/l801.exe)
 ExpMin= 2.53D-02 ExpMax= 1.14D+04 ExpMxC= 3.89D+02 IAcc=3 IRadAn=         5 AccDes= 0.00D+00
 HarFok:  IExCor=  205 AccDes= 0.00D+00 IRadAn=         5 IDoV=-2 UseB2=F ITyADJ=14
 ICtDFT= 12500011 ScaDFX=  1.000000  1.000000  1.000000  1.000000
 Largest valence mixing into a core orbital is  1.93D-04
 Largest core mixing into a valence orbital is  2.93D-05
 Range of M.O.s used for correlation:     6   345
 NBasis=   345 NAE=    18 NBE=    18 NFC=     5 NFV=     0
 NROrb=    340 NOA=    13 NOB=    13 NVA=   327 NVB=   327

 **** Warning!!: The largest alpha MO coefficient is  0.94070528D+02

 Leave Link  801 at Tue Sep 30 16:59:04 2025, MaxMem=  4294967296 cpu:               0.9 elap:               0.1
 (Enter /software/sse/easybuild/prefix/software/Gaussian/16.C.01-avx2-nsc1/g16/l906.exe)
 Frozen-core derivative calculation, NFC=   5 NFV=   0.
 FulOut=F Deriv=T AODrv=T NAtomX=    10
   MMem=          14  MDisk=          13 MDiskD=          13
  W3Min=     2484000 MinDsk=     4297400 NBas6D=         400
 NBas2D=       81130    NTT=       80200    LW2=     3500000
    MDV=  4293529599 MDiskM=       53644 NBas2p=       42601
 Fully direct method using O(ONN) memory.
 IMap=   1   2   3   4   5   6   7   8   9  10  11  12  13  14  15  16  17  18
 JobTyp=1 Pass  1:  I=   6 to  18 NPSUse= 16 ParTrn=T ParDer=T DoDerP=T.
 Spin components of T(2) and E(2):
     alpha-alpha T2 =       0.3507152290D-01 E2=     -0.1101302878D+00
     alpha-beta  T2 =       0.1924464717D+00 E2=     -0.6562964630D+00
     beta-beta   T2 =       0.3507152290D-01 E2=     -0.1101302878D+00
 The integrals were generated   1 times.
 ANorm=    0.1123650087D+01
 E2 =    -0.8765570387D+00 EUMP2 =    -0.22615830433160D+03
 Leave Link  906 at Tue Sep 30 17:00:11 2025, MaxMem=  4294967296 cpu:            1073.0 elap:              67.4
 (Enter /software/sse/easybuild/prefix/software/Gaussian/16.C.01-avx2-nsc1/g16/l1002.exe)
 Minotr:  Closed shell wavefunction.
          Computing MP2/KS-MP2 derivatives.
          Using Z-Vector for PSCF gradient.
          Skipping F1 and S1 gradient terms here.
          IDoAtm=1111111111
          Frozen-core window.
          Direct CPHF calculation.
          Differentiating once with respect to electric field.
                with respect to dipole field.
          Differentiating once with respect to nuclear coordinates.
          Using symmetry in CPHF.
          Requested convergence is 1.0D-10 RMS, and 1.0D-09 maximum.
          NewPWx=F KeepS1=T KeepF1=T KeepIn=T MapXYZ=F SortEE=F KeepMc=T.
 Keep R1 ints in memory in symmetry-blocked form, NReq=2232413295.
 FoFCou: FMM=F IPFlag=           0 FMFlag=           0 FMFlg1=           0
         NFxFlg=           0 DoJE=F BraDBF=F KetDBF=F FulRan=T
         wScrn=  0.000000 ICntrl=       600 IOpCl=  0 I1Cent=           0 NGrid=           0
         NMat0=    1 NMatS0=  59685 NMatT0=    0 NMatD0=    1 NMtDS0=    0 NMtDT0=    0
 Petite list used in FoFCou.
          MDV=    4294967296 using IRadAn=       5.
          Solving linear equations separately, MaxMat=       0.
          There are     1 degrees of freedom in the 1st order CPHF.  IDoFFX=0 NUNeed=     1.
 LinEq1:  Iter=  0 NonCon=     1 RMS=2.71D-03 Max=7.11D-02 NDo=     1
 AX will form     1 AO Fock derivatives at one time.
 LinEq1:  Iter=  1 NonCon=     1 RMS=7.16D-04 Max=1.48D-02 NDo=     1
 LinEq1:  Iter=  2 NonCon=     1 RMS=3.15D-04 Max=9.48D-03 NDo=     1
 LinEq1:  Iter=  3 NonCon=     1 RMS=7.45D-05 Max=1.39D-03 NDo=     1
 LinEq1:  Iter=  4 NonCon=     1 RMS=2.22D-05 Max=5.88D-04 NDo=     1
 LinEq1:  Iter=  5 NonCon=     1 RMS=6.17D-06 Max=1.08D-04 NDo=     1
 LinEq1:  Iter=  6 NonCon=     1 RMS=9.42D-07 Max=1.62D-05 NDo=     1
 LinEq1:  Iter=  7 NonCon=     1 RMS=1.41D-07 Max=1.40D-06 NDo=     1
 LinEq1:  Iter=  8 NonCon=     1 RMS=5.37D-08 Max=9.37D-07 NDo=     1
 LinEq1:  Iter=  9 NonCon=     1 RMS=1.21D-08 Max=1.83D-07 NDo=     1
 LinEq1:  Iter= 10 NonCon=     1 RMS=2.11D-09 Max=2.31D-08 NDo=     1
 LinEq1:  Iter= 11 NonCon=     1 RMS=2.91D-10 Max=4.31D-09 NDo=     1
 LinEq1:  Iter= 12 NonCon=     0 RMS=3.91D-11 Max=5.06D-10 NDo=     1
 Linear equations converged to 1.000D-10 1.000D-09 after    12 iterations.
 End of Minotr F.D. properties file   721 does not exist.
 End of Minotr F.D. properties file   722 does not exist.
 End of Minotr F.D. properties file   788 does not exist.
 Leave Link 1002 at Tue Sep 30 17:00:24 2025, MaxMem=  4294967296 cpu:             136.5 elap:              12.7
 (Enter /software/sse/easybuild/prefix/software/Gaussian/16.C.01-avx2-nsc1/g16/l601.exe)
 Copying SCF densities to generalized density rwf, IOpCl= 0 IROHF=0.
 SCF density gives NOpUse=  4 NOpAll=  4.

 **********************************************************************

            Population analysis using the MP2 Density.

 **********************************************************************

 Orbital symmetries:
 BldTbl:  Degeneracy threshold= 1.00D-02
       Occupied  (B2) (A1) (A1) (A1) (B2) (A1) (B2) (A1) (A1) (B2)
                 (A1) (B2) (B1) (A1) (B2) (A1) (A2) (B1)
       Virtual   (A1) (B2) (B1) (A1) (A1) (B2) (B1) (A1) (A2) (B1)
                 (B2) (A1) (B2) (A1) (A2) (A1) (B2) (B2) (A1) (A2)
                 (A1) (B1) (A1) (B2) (A1) (B2) (B1) (A1) (B2) (A1)
                 (A1) (B2) (B2) (B1) (A1) (B1) (A2) (B2) (A1) (A2)
                 (B2) (A1) (A2) (B1) (A1) (A1) (B2) (B2) (A2) (A1)
                 (A1) (B2) (B1) (A1) (B1) (A1) (B2) (B1) (B2) (A1)
                 (B2) (A2) (A1) (A1) (B2) (A1) (B2) (B2) (B1) (B2)
                 (B2) (A2) (A1) (A1) (B1) (A2) (B2) (A1) (B1) (A2)
                 (B2) (A1) (B2) (A1) (A1) (A1) (B1) (B2) (A2) (B1)
                 (A1) (B2) (B1) (B1) (A1) (B2) (A1) (A2) (B2) (A2)
                 (A1) (B1) (A1) (B2) (A2) (A1) (B2) (A2) (B1) (B2)
                 (A1) (A1) (B1) (A2) (B2) (B1) (B2) (A1) (A1) (B2)
                 (A1) (B2) (B1) (B2) (A2) (A1) (B2) (B1) (A1) (A2)
                 (B2) (A1) (A2) (B1) (A1) (B2) (B1) (A2) (B2) (A1)
                 (A1) (B1) (B2) (A1) (A1) (A2) (B2) (A1) (B1) (B2)
                 (B1) (A1) (A2) (A1) (B2) (B1) (A2) (A1) (B2) (A2)
                 (A1) (B2) (B2) (B1) (A1) (B2) (A1) (A1) (B1) (A2)
                 (B2) (B2) (A2) (B1) (A1) (B2) (A2) (A1) (B2) (B2)
                 (A1) (B1) (B2) (A2) (A1) (B1) (A1) (B1) (B2) (B2)
                 (A1) (A2) (A1) (B2) (B2) (A2) (A1) (B2) (B1) (A1)
                 (B2) (B1) (B2) (A1) (A2) (B1) (A1) (A1) (B1) (A1)
                 (B2) (A1) (B1) (B1) (A2) (B2) (B1) (A1) (A2) (B2)
                 (A1) (B1) (A2) (A1) (B2) (B1) (A1) (A1) (A2) (A2)
                 (B2) (A1) (B2) (A1) (B1) (A1) (A2) (B2) (A1) (A2)
                 (B2) (B1) (A1) (B2) (A1) (B2) (A2) (B2) (A1) (A2)
                 (B1) (B1) (A2) (B2) (B1) (A1) (B2) (A1) (B2) (A2)
                 (B2) (A1) (B2) (B1) (A1) (A1) (B1) (B1) (A1) (A2)
                 (B2) (B2) (A1) (A2) (A1) (B2) (A1) (B2) (B1) (A2)
                 (B2) (A1) (B1) (B2) (B1) (A2) (A1) (B2) (B1) (A2)
                 (B2) (B2) (A1) (A2) (B1) (B1) (B2) (A1) (A2) (A1)
                 (A1) (A2) (A1) (B2) (A2) (B2) (A1) (B1) (A1) (B2)
                 (B2) (B2) (A1) (A1) (B2) (A1) (B2) (A1) (B2) (B2)
                 (B2) (A1) (A1) (B2) (A1) (B2) (A1)
 The electronic state is 1-A1.
 Alpha  occ. eigenvalues --  -15.84705 -15.84701 -11.54851 -11.47145 -11.46974
 Alpha  occ. eigenvalues --   -1.61081  -1.44104  -1.25913  -1.10870  -1.05228
 Alpha  occ. eigenvalues --   -1.00308  -0.91018  -0.85320  -0.83722  -0.81881
 Alpha  occ. eigenvalues --   -0.81573  -0.66863  -0.55499
 Alpha virt. eigenvalues --   -0.09766  -0.08102  -0.07222  -0.07112  -0.05223
 Alpha virt. eigenvalues --   -0.05119  -0.04355  -0.03484  -0.03263  -0.01086
 Alpha virt. eigenvalues --   -0.00943  -0.00245   0.00093   0.00149   0.00223
 Alpha virt. eigenvalues --    0.01394   0.02557   0.03605   0.03814   0.05038
 Alpha virt. eigenvalues --    0.05186   0.05499   0.07603   0.09147   0.09312
 Alpha virt. eigenvalues --    0.09700   0.11070   0.13042   0.13783   0.15832
 Alpha virt. eigenvalues --    0.16952   0.16954   0.17653   0.18164   0.18524
 Alpha virt. eigenvalues --    0.18767   0.19091   0.19620   0.21354   0.22088
 Alpha virt. eigenvalues --    0.23156   0.23577   0.25109   0.25214   0.25357
 Alpha virt. eigenvalues --    0.26526   0.27061   0.28730   0.30056   0.30913
 Alpha virt. eigenvalues --    0.31872   0.32439   0.32856   0.34013   0.34245
 Alpha virt. eigenvalues --    0.34471   0.35062   0.35673   0.36036   0.36940
 Alpha virt. eigenvalues --    0.38573   0.41542   0.43300   0.43576   0.45255
 Alpha virt. eigenvalues --    0.45276   0.46601   0.48882   0.49225   0.52554
 Alpha virt. eigenvalues --    0.53290   0.53669   0.56072   0.56429   0.56452
 Alpha virt. eigenvalues --    0.56820   0.61323   0.61640   0.62130   0.64108
 Alpha virt. eigenvalues --    0.65729   0.68403   0.69475   0.69520   0.72153
 Alpha virt. eigenvalues --    0.73443   0.74382   0.74386   0.75957   0.76001
 Alpha virt. eigenvalues --    0.78279   0.78441   0.78972   0.80682   0.80716
 Alpha virt. eigenvalues --    0.81144   0.83366   0.84016   0.86815   0.87178
 Alpha virt. eigenvalues --    0.87305   0.88590   0.88930   0.89968   0.90738
 Alpha virt. eigenvalues --    0.93975   0.94782   0.97127   0.97172   0.98393
 Alpha virt. eigenvalues --    0.98413   0.99804   1.00899   1.02136   1.02728
 Alpha virt. eigenvalues --    1.04098   1.04381   1.06206   1.07473   1.07536
 Alpha virt. eigenvalues --    1.09569   1.11300   1.14394   1.16750   1.18320
 Alpha virt. eigenvalues --    1.18799   1.19682   1.22380   1.23786   1.24328
 Alpha virt. eigenvalues --    1.25056   1.26213   1.27240   1.28636   1.30769
 Alpha virt. eigenvalues --    1.32250   1.34622   1.34693   1.34877   1.35381
 Alpha virt. eigenvalues --    1.36856   1.36942   1.43150   1.45490   1.48353
 Alpha virt. eigenvalues --    1.49575   1.49631   1.52738   1.56023   1.57610
 Alpha virt. eigenvalues --    1.60668   1.63196   1.63897   1.68931   1.69389
 Alpha virt. eigenvalues --    1.69540   1.71198   1.76812   1.78670   1.81107
 Alpha virt. eigenvalues --    1.81177   1.82374   1.85625   1.87846   1.88271
 Alpha virt. eigenvalues --    1.92765   1.93746   1.96606   1.98206   1.98706
 Alpha virt. eigenvalues --    1.99353   2.05504   2.05698   2.06617   2.08209
 Alpha virt. eigenvalues --    2.09850   2.13397   2.17503   2.17805   2.21278
 Alpha virt. eigenvalues --    2.21554   2.26294   2.28773   2.30457   2.30626
 Alpha virt. eigenvalues --    2.33099   2.36201   2.37102   2.37696   2.44002
 Alpha virt. eigenvalues --    2.48398   2.52153   2.53888   2.56591   2.64198
 Alpha virt. eigenvalues --    2.70944   2.71145   2.71776   2.81737   2.83450
 Alpha virt. eigenvalues --    2.87471   2.88795   2.92498   2.96283   3.09529
 Alpha virt. eigenvalues --    3.10979   3.12845   3.19175   3.23973   3.24856
 Alpha virt. eigenvalues --    3.27936   3.29076   3.31168   3.35690   3.39859
 Alpha virt. eigenvalues --    3.40905   3.47187   3.48899   3.49693   3.54719
 Alpha virt. eigenvalues --    3.54800   3.55752   3.57747   3.61659   3.63054
 Alpha virt. eigenvalues --    3.63736   3.63935   3.66142   3.69447   3.75597
 Alpha virt. eigenvalues --    3.76361   3.83095   3.83694   3.86696   3.93064
 Alpha virt. eigenvalues --    3.94851   3.95961   3.96559   3.97054   3.98266
 Alpha virt. eigenvalues --    3.99024   4.04758   4.05733   4.05772   4.07545
 Alpha virt. eigenvalues --    4.11142   4.12025   4.14665   4.19719   4.20348
 Alpha virt. eigenvalues --    4.22784   4.23221   4.28372   4.30289   4.36328
 Alpha virt. eigenvalues --    4.38493   4.38858   4.45107   4.45251   4.47311
 Alpha virt. eigenvalues --    4.53885   4.59016   4.59878   4.61607   4.64225
 Alpha virt. eigenvalues --    4.69181   4.72854   4.77129   4.80321   4.80856
 Alpha virt. eigenvalues --    4.83805   4.86432   4.87422   4.87804   4.95858
 Alpha virt. eigenvalues --    5.00806   5.01406   5.05152   5.10527   5.14319
 Alpha virt. eigenvalues --    5.19722   5.20403   5.25979   5.27347   5.31318
 Alpha virt. eigenvalues --    5.36144   5.37585   5.39419   5.41447   5.45566
 Alpha virt. eigenvalues --    5.49379   5.54697   5.57253   5.58363   5.58734
 Alpha virt. eigenvalues --    5.64229   5.65112   5.65494   5.74372   5.79918
 Alpha virt. eigenvalues --    5.82126   5.87436   5.89276   6.04595   6.07395
 Alpha virt. eigenvalues --    6.10254   6.12092   6.18700   6.28871   6.35846
 Alpha virt. eigenvalues --    6.44829   6.46912   6.59751   6.66767   6.71275
 Alpha virt. eigenvalues --    6.85574   6.89303   6.93938   7.00186   7.54786
 Alpha virt. eigenvalues --    7.68174   7.71633  16.77799  17.23640  18.54169
 Alpha virt. eigenvalues --   18.87953  19.64715
          Condensed to atoms (all electrons):
               1          2          3          4          5          6
     1  C    7.748577  -0.858522  -0.027318  -0.430211   0.017922   0.031194
     2  C   -0.858522   7.748577   0.017922  -0.430211  -0.027318  -0.048448
     3  N   -0.027318   0.017922   6.736808   0.228111  -0.307188  -0.012086
     4  C   -0.430211  -0.430211   0.228111   7.160415   0.228111  -0.013620
     5  N    0.017922  -0.027318  -0.307188   0.228111   6.736808  -0.003321
     6  H    0.031194  -0.048448  -0.012086  -0.013620  -0.003321   0.492070
     7  H   -0.048448   0.031194  -0.003321  -0.013620  -0.012086  -0.028030
     8  H    0.018544  -0.092424   0.361797  -0.136989  -0.000780   0.001175
     9  H   -0.032755  -0.032755  -0.024865   0.092261  -0.024865  -0.003292
    10  H   -0.092424   0.018544  -0.000780  -0.136989   0.361797   0.001210
               7          8          9         10
     1  C   -0.048448   0.018544  -0.032755  -0.092424
     2  C    0.031194  -0.092424  -0.032755   0.018544
     3  N   -0.003321   0.361797  -0.024865  -0.000780
     4  C   -0.013620  -0.136989   0.092261  -0.136989
     5  N   -0.012086  -0.000780  -0.024865   0.361797
     6  H   -0.028030   0.001175  -0.003292   0.001210
     7  H    0.492070   0.001210  -0.003292   0.001175
     8  H    0.001210   0.673790  -0.005634   0.003388
     9  H   -0.003292  -0.005634   0.420439  -0.005634
    10  H    0.001175   0.003388  -0.005634   0.673790
 Mulliken charges:
               1
     1  C   -0.326558
     2  C   -0.326558
     3  N    0.030921
     4  C   -0.547258
     5  N    0.030921
     6  H    0.583148
     7  H    0.583148
     8  H    0.175922
     9  H    0.620392
    10  H    0.175922
 Sum of Mulliken charges =   1.00000
 Mulliken charges with hydrogens summed into heavy atoms:
               1
     1  C    0.256590
     2  C    0.256590
     3  N    0.206843
     4  C    0.073134
     5  N    0.206843
 DipInt: DoE/N= T F RetVal/Mat= T F Init=T NMatP=  1 IDeriv=0 Min/MaxMlt=  0  4
 Entering OneElI...
 OneElI was handed  4294558166 working-precision words.
 Multipole integrals L=0 to 4 MinM= 0 MaxM= 0.
 Requested accuracy = 0.1000D-12
 ShPair: Thresh= 1.00D-13 NBox=     0 BxSize= 0.00D+00 RnKept= 7.92D+00
         NSMCal=                 6670 NSMKep=                6664
 PrmmSu-InSpLW:  IPartL=    0 NPrtUS=    1 NPrtUL=    1 DoSpLW=F IThBeg=    0 IThEnd=    0 NThAct=    1.
 PrSmSu:  IncTry=   512 NBBP=           6664 NTPThr=   100 NPartT=    1 Incr=          66 LDynOK=F GPUOK=F.
 PrsmSu:  NPrtUS=   1 ThrOK=F IAlg=2 LenDen=           0 ISkipM=0 DoSpLW=F IThBeg=    0 IThEnd=    0.
 Prism:   IPart=     0 DynPar=F LinDyn=F Incr=          66.
 PRISM was handed  4294081528 working-precision words and  6664 shell-pairs
 IPart=  0 NShTot=        6664 NBatch=          82 AvBLen=        81.3
 PrsmSu-ThDecC:  IPartSL=    0    0 NPrtUSL=    1    1 IThBeg=    0 IThEnd=    0 CPU=   -1 GPU=   -1 NThAct=    1.
 PrSmSu:  NxtVal=             67.
 Electronic moments (au):
        -36.00000000         -0.00000000         -0.00000000          0.51586831
        -22.29868938       -126.92210877       -129.00504489         -0.00000000
         -0.00000000         -0.00000000         -0.00000000         -0.00000000
         20.44630425         -0.00000000         -0.00000000          2.10436489
          0.00000000         -0.00000000         10.68432035          0.00000000
        -78.71629071       -993.19274094      -1141.10344360         -0.00000000
         -0.00000000         -0.00000000          0.00000000         -0.00000000
          0.00000000        -87.16059843        -95.52631861       -381.80472634
          0.00000000         -0.00000000         -0.00000000
 Electronic spatial extent (au):  <R**2>=            278.2258
 DipInt: DoE/N= F T RetVal/Mat= T F Init=T NMatP=  1 IDeriv=0 Min/MaxMlt=  0  4
 Nuclear    moments (au):
         37.00000000          0.00000000         -0.00000000         -0.00000000
          0.00000000        117.18935236        116.37644113          0.00000000
          0.00000000          0.00000000          0.00000000          0.00000000
        -13.44350134          0.00000000          0.00000000         -0.00000000
         -0.00000000          0.00000000         -5.77777224         -0.00000000
          0.00000000        752.32753578        809.58467696          0.00000000
          0.00000000          0.00000000          0.00000000          0.00000000
          0.00000000          0.00000000          0.00000000        287.01815918
          0.00000000          0.00000000          0.00000000
 Total      moments (au):
          1.00000000         -0.00000000         -0.00000000          0.51586831
        -22.29868938         -9.73275641        -12.62860376          0.00000000
          0.00000000         -0.00000000         -0.00000000         -0.00000000
          7.00280292          0.00000000         -0.00000000          2.10436489
         -0.00000000         -0.00000000          4.90654810         -0.00000000
        -78.71629071       -240.86520516       -331.51876664         -0.00000000
         -0.00000000         -0.00000000          0.00000000         -0.00000000
          0.00000000        -87.16059843        -95.52631861        -94.78656717
          0.00000000          0.00000000         -0.00000000
 Traceless Quadrup. (au):
         -7.41200620          5.15392677          2.25807943          0.00000000
          0.00000000         -0.00000000
 Charge=              1.0000 electrons
 Dipole moment (field-independent basis, Debye):
    X=             -0.0000    Y=             -0.0000    Z=              1.3112  Tot=              1.3112
 Quadrupole moment (field-independent basis, Debye-Ang):
   XX=            -29.9925   YY=            -13.0909   ZZ=            -16.9859
   XY=              0.0000   XZ=              0.0000   YZ=             -0.0000
 Traceless Quadrupole moment (field-independent basis, Debye-Ang):
   XX=             -9.9694   YY=              6.9322   ZZ=              3.0372
   XY=              0.0000   XZ=              0.0000   YZ=             -0.0000
 Octapole moment (field-independent basis, Debye-Ang**2):
  XXX=             -0.0000  YYY=             -0.0000  ZZZ=              4.9843  XYY=              0.0000
  XXY=             -0.0000  XXZ=              1.4978  XZZ=             -0.0000  YZZ=             -0.0000
  YYZ=              3.4923  XYZ=             -0.0000
 Hexadecapole moment (field-independent basis, Debye-Ang**3):
 XXXX=            -29.6483 YYYY=            -90.7214 ZZZZ=           -124.8659 XXXY=             -0.0000
 XXXZ=             -0.0000 YYYX=             -0.0000 YYYZ=              0.0000 ZZZX=             -0.0000
 ZZZY=              0.0000 XXYY=            -32.8289 XXZZ=            -35.9798 YYZZ=            -35.7012
 XXYZ=              0.0000 YYXZ=              0.0000 ZZXY=             -0.0000
 N-N= 1.751153557190D+02 E-N=-8.684971020480D+02  KE= 2.262779451446D+02
 Symmetry A1   KE= 1.273023035908D+02
 Symmetry A2   KE= 3.468566635358D+00
 Symmetry B1   KE= 5.110274482807D+00
 Symmetry B2   KE= 9.039680043560D+01
 SetAtRh:  ITypeU=  23 NETotI=      -1 ICharg=  0 NETot=      37.
 StAtR1:  I=    1 I1=    1 IA=  6 C=   6.0 OKShel=TTT
                                                  SSP
                                                  222
 StAtR1:  I=    2 I1=    2 IA=  6 C=   6.0 OKShel=TTT
                                                  SSP
                                                  222
 StAtR1:  I=    3 I1=    3 IA=  7 C=   7.0 OKShel=TTT
                                                  SSP
                                                  223
 StAtR1:  I=    4 I1=    4 IA=  6 C=   6.0 OKShel=TTT
                                                  SSP
                                                  222
 StAtR1:  I=    5 I1=    5 IA=  7 C=   7.0 OKShel=TTT
                                                  SSP
                                                  223
 StAtR1:  I=    6 I1=    6 IA=  1 C=   1.0 OKShel=T
                                                  S
                                                  1
 StAtR1:  I=    7 I1=    7 IA=  1 C=   1.0 OKShel=T
                                                  S
                                                  1
 StAtR1:  I=    8 I1=    8 IA=  1 C=   1.0 OKShel=T
                                                  S
                                                  1
 StAtR1:  I=    9 I1=    9 IA=  1 C=   1.0 OKShel=T
                                                  S
                                                  1
 StAtR1:  I=   10 I1=   10 IA=  1 C=   1.0 OKShel=T
                                                  S
                                                  1
          I=    1 IA=  6 I1=    1 NAtG=23 NE=   6.000 C=   6.000 Err= 1.75D-11
          I=    2 IA=  6 I1=    2 NAtG=23 NE=   6.000 C=   6.000 Err= 1.75D-11
          I=    3 IA=  7 I1=    3 NAtG=22 NE=   7.000 C=   7.000 Err= 6.08D-13
          I=    4 IA=  6 I1=    4 NAtG=23 NE=   6.000 C=   6.000 Err= 1.75D-11
          I=    5 IA=  7 I1=    5 NAtG=22 NE=   7.000 C=   7.000 Err= 6.08D-13
          I=    6 IA=  1 I1=    6 NAtG=20 NE=   1.000 C=   1.000 Err= 2.80D-12
          I=    7 IA=  1 I1=    7 NAtG=20 NE=   1.000 C=   1.000 Err= 2.80D-12
          I=    8 IA=  1 I1=    8 NAtG=20 NE=   1.000 C=   1.000 Err= 2.80D-12
          I=    9 IA=  1 I1=    9 NAtG=20 NE=   1.000 C=   1.000 Err= 2.80D-12
          I=   10 IA=  1 I1=   10 NAtG=20 NE=   1.000 C=   1.000 Err= 2.80D-12
 Pruned (  99, 590) grid will be used in numerical quadrature.
 IPart=  0 IRanGd=          0 ScrnBf=T ScrnGd=T RCrit=4.00D+00 DoMicB=T.
 CutRad = 1000.00    CtRdIn =    0.00    XCrit =  15.00   ICut = 0
 Pruned (  99, 590) grid will be used in numerical quadrature.
 IPart=  1 IRanGd=          0 ScrnBf=T ScrnGd=T RCrit=4.00D+00 DoMicB=T.
 Pruned (  99, 590) grid will be used in numerical quadrature.
 Pruned (  99, 590) grid will be used in numerical quadrature.
 IPart= 10 IRanGd=          0 ScrnBf=T ScrnGd=T RCrit=4.00D+00 DoMicB=T.
 Pruned (  99, 590) grid will be used in numerical quadrature.
 CutRad = 1000.00    CtRdIn =    0.00    XCrit =  15.00   ICut = 0
 CutRad = 1000.00    CtRdIn =    0.00    XCrit =  15.00   ICut = 0
 IPart=  5 IRanGd=          0 ScrnBf=T ScrnGd=T RCrit=4.00D+00 DoMicB=T.
 Pruned (  99, 590) grid will be used in numerical quadrature.
 Pruned (  99, 590) grid will be used in numerical quadrature.
 IPart= 15 IRanGd=          0 ScrnBf=T ScrnGd=T RCrit=4.00D+00 DoMicB=T.
 IPart=  4 IRanGd=          0 ScrnBf=T ScrnGd=T RCrit=4.00D+00 DoMicB=T.
 Pruned (  99, 590) grid will be used in numerical quadrature.
 Pruned (  99, 590) grid will be used in numerical quadrature.
 CutRad = 1000.00    CtRdIn =    0.00    XCrit =  15.00   ICut = 0
 IPart=  6 IRanGd=          0 ScrnBf=T ScrnGd=T RCrit=4.00D+00 DoMicB=T.
 IPart= 14 IRanGd=          0 ScrnBf=T ScrnGd=T RCrit=4.00D+00 DoMicB=T.
 CutRad = 1000.00    CtRdIn =    0.00    XCrit =  15.00   ICut = 0
 CutRad = 1000.00    CtRdIn =    0.00    XCrit =  15.00   ICut = 0
 Pruned (  99, 590) grid will be used in numerical quadrature.
 Pruned (  99, 590) grid will be used in numerical quadrature.
 IPart= 12 IRanGd=          0 ScrnBf=T ScrnGd=T RCrit=4.00D+00 DoMicB=T.
 CutRad = 1000.00    CtRdIn =    0.00    XCrit =  15.00   ICut = 0
 CutRad = 1000.00    CtRdIn =    0.00    XCrit =  15.00   ICut = 0
 CutRad = 1000.00    CtRdIn =    0.00    XCrit =  15.00   ICut = 0
 IPart=  3 IRanGd=          0 ScrnBf=T ScrnGd=T RCrit=4.00D+00 DoMicB=T.
 Pruned (  99, 590) grid will be used in numerical quadrature.
 Pruned (  99, 590) grid will be used in numerical quadrature.
 IPart=  0 Atom number   1 atomic number  6 has       23114 grid points.
 Pruned (  99, 590) grid will be used in numerical quadrature.
 IPart=  2 IRanGd=          0 ScrnBf=T ScrnGd=T RCrit=4.00D+00 DoMicB=T.
 Pruned (  99, 590) grid will be used in numerical quadrature.
 Pruned (  99, 590) grid will be used in numerical quadrature.
 CutRad = 1000.00    CtRdIn =    0.00    XCrit =  15.00   ICut = 0
 IPart=  9 IRanGd=          0 ScrnBf=T ScrnGd=T RCrit=4.00D+00 DoMicB=T.
 Pruned (  99, 590) grid will be used in numerical quadrature.
 IPart=  7 IRanGd=          0 ScrnBf=T ScrnGd=T RCrit=4.00D+00 DoMicB=T.
 CutRad = 1000.00    CtRdIn =    0.00    XCrit =  15.00   ICut = 0
 IPart=  8 IRanGd=          0 ScrnBf=T ScrnGd=T RCrit=4.00D+00 DoMicB=T.
 CutRad = 1000.00    CtRdIn =    0.00    XCrit =  15.00   ICut = 0
 CutRad = 1000.00    CtRdIn =    0.00    XCrit =  15.00   ICut = 0
 IPart= 11 IRanGd=          0 ScrnBf=T ScrnGd=T RCrit=4.00D+00 DoMicB=T.
 CutRad = 1000.00    CtRdIn =    0.00    XCrit =  15.00   ICut = 0
 IPart=  0 Atom   1 batch    1 overlaps   10 atoms,   110 shells and    10 DB shells.   NGrid=      2408
 CutRad = 1000.00    CtRdIn =    0.00    XCrit =  15.00   ICut = 0
 IPart= 13 IRanGd=          0 ScrnBf=T ScrnGd=T RCrit=4.00D+00 DoMicB=T.
 CutRad = 1000.00    CtRdIn =    0.00    XCrit =  15.00   ICut = 0
 Symmetry reduced    86 angular points to    86 for atom    1.
 Pruned (  99, 590) grid will be used in numerical quadrature.
 Pruned (  99, 590) grid will be used in numerical quadrature.
 IPart= 10 Atom number   1 atomic number  6 has       23114 grid points.
 IPart=  1 Atom number   1 atomic number  6 has       23114 grid points.
 IPart= 10 Atom   1 batch    2 overlaps   10 atoms,   113 shells and    10 DB shells.   NGrid=      2522
 IPart=  1 Atom   1 batch    3 overlaps   10 atoms,   114 shells and    10 DB shells.   NGrid=      2114
 Symmetry reduced   194 angular points to   194 for atom    1.
 Symmetry reduced   302 angular points to   302 for atom    1.
 Pruned (  99, 590) grid will be used in numerical quadrature.
 IPart=  4 Atom number   1 atomic number  6 has       23114 grid points.
 Pruned (  99, 590) grid will be used in numerical quadrature.
 Pruned (  99, 590) grid will be used in numerical quadrature.
 IPart=  6 Atom number   1 atomic number  6 has       23114 grid points.
 IPart= 14 Atom number   1 atomic number  6 has       23114 grid points.
 IPart=  6 Atom   1 batch    5 overlaps   10 atoms,   115 shells and    10 DB shells.   NGrid=      1180
 IPart= 14 Atom   1 batch    6 overlaps   10 atoms,   115 shells and    10 DB shells.   NGrid=      1180
 IPart=  4 Atom   1 batch    4 overlaps   10 atoms,   115 shells and    10 DB shells.   NGrid=      1180
 Symmetry reduced   590 angular points to   590 for atom    1.
 Pruned (  99, 590) grid will be used in numerical quadrature.
 Pruned (  99, 590) grid will be used in numerical quadrature.
 Pruned (  99, 590) grid will be used in numerical quadrature.
 IPart= 15 Atom number   1 atomic number  6 has       23114 grid points.
 IPart= 12 Atom number   1 atomic number  6 has       23114 grid points.
 Symmetry reduced   590 angular points to   590 for atom    1.
 IPart= 12 Atom   1 batch    8 overlaps   10 atoms,   115 shells and    10 DB shells.   NGrid=      1180
 Symmetry reduced   590 angular points to   590 for atom    1.
 IPart=  5 Atom number   1 atomic number  6 has       23114 grid points.
 Symmetry reduced   590 angular points to   590 for atom    1.
 IPart=  5 Atom   1 batch    7 overlaps   10 atoms,   115 shells and    10 DB shells.   NGrid=      1180
 IPart= 15 Atom   1 batch    9 overlaps   10 atoms,   115 shells and    10 DB shells.   NGrid=      1180
 Symmetry reduced   590 angular points to   590 for atom    1.
 Symmetry reduced   590 angular points to   590 for atom    1.
 Pruned (  99, 590) grid will be used in numerical quadrature.
 IPart=  2 Atom number   1 atomic number  6 has       23114 grid points.
 Pruned (  99, 590) grid will be used in numerical quadrature.
 IPart=  2 Atom   1 batch   10 overlaps   10 atoms,   115 shells and    10 DB shells.   NGrid=      1180
 IPart=  7 Atom number   1 atomic number  6 has       23114 grid points.
 Pruned (  99, 590) grid will be used in numerical quadrature.
 Symmetry reduced   590 angular points to   590 for atom    1.
 Pruned (  99, 590) grid will be used in numerical quadrature.
 Pruned (  99, 590) grid will be used in numerical quadrature.
 IPart= 11 Atom number   1 atomic number  6 has       23114 grid points.
 IPart=  8 Atom number   1 atomic number  6 has       23114 grid points.
 IPart=  7 Atom   1 batch   11 overlaps   10 atoms,   114 shells and    10 DB shells.   NGrid=      1180
 IPart=  8 Atom   1 batch   13 overlaps   10 atoms,   114 shells and    10 DB shells.   NGrid=       604
 Pruned (  99, 590) grid will be used in numerical quadrature.
 IPart=  3 Atom number   1 atomic number  6 has       23114 grid points.
 IPart=  9 Atom number   1 atomic number  6 has       23114 grid points.
 IPart=  3 Atom   1 batch   12 overlaps   10 atoms,   114 shells and    10 DB shells.   NGrid=       590
 Symmetry reduced   302 angular points to   302 for atom    1.
 IPart= 11 Atom   1 batch   14 overlaps   10 atoms,   114 shells and    10 DB shells.   NGrid=       604
 Symmetry reduced   590 angular points to   590 for atom    1.
 Symmetry reduced   302 angular points to   302 for atom    1.
 Symmetry reduced   590 angular points to   590 for atom    1.
 Pruned (  99, 590) grid will be used in numerical quadrature.
 IPart=  9 Atom   1 batch   15 overlaps   10 atoms,   109 shells and    10 DB shells.   NGrid=       604
 IPart= 13 Atom number   1 atomic number  6 has       23114 grid points.
 Symmetry reduced   302 angular points to   302 for atom    1.
 IPart= 13 Atom   1 batch   16 overlaps   10 atoms,   102 shells and    10 DB shells.   NGrid=       604
 Symmetry reduced   302 angular points to   302 for atom    1.
 IPart= 13 Atom   1 batch   17 overlaps   10 atoms,    90 shells and    10 DB shells.   NGrid=       604
 IPart=  9 Atom   1 batch   18 overlaps   10 atoms,    70 shells and    10 DB shells.   NGrid=       604
 IPart= 11 Atom   1 batch   19 overlaps   10 atoms,    50 shells and    10 DB shells.   NGrid=       604
 IPart=  9 Atom   1 batch   20 overlaps   10 atoms,    32 shells and     6 DB shells.   NGrid=       604
 IPart= 13 Atom   1 batch   21 overlaps   10 atoms,    15 shells and     0 DB shells.   NGrid=       604
 IPart=  3 Atom   1 batch   22 overlaps   10 atoms,     6 shells and     0 DB shells.   NGrid=       604
 Symmetry reduced   302 angular points to   302 for atom    1.
 Pruned (  99, 590) grid will be used in numerical quadrature.
 IPart=  8 Atom number   2 atomic number  6 has       23114 grid points.
 Pruned (  99, 590) grid will be used in numerical quadrature.
 IPart=  8 Atom   2 batch    1 overlaps   10 atoms,   110 shells and    10 DB shells.   NGrid=      2408
 IPart= 11 Atom number   2 atomic number  6 has       23114 grid points.
 Symmetry reduced    86 angular points to    86 for atom    2.
 IPart= 11 Atom   2 batch    2 overlaps   10 atoms,   113 shells and    10 DB shells.   NGrid=      2522
 Pruned (  99, 590) grid will be used in numerical quadrature.
 Symmetry reduced   194 angular points to   194 for atom    2.
 IPart=  9 Atom number   2 atomic number  6 has       23114 grid points.
 IPart=  9 Atom   2 batch    3 overlaps   10 atoms,   114 shells and    10 DB shells.   NGrid=      2114
 Symmetry reduced   302 angular points to   302 for atom    2.
 Pruned (  99, 590) grid will be used in numerical quadrature.
 IPart= 13 Atom number   2 atomic number  6 has       23114 grid points.
 IPart= 13 Atom   2 batch    4 overlaps   10 atoms,   115 shells and    10 DB shells.   NGrid=      1180
 Symmetry reduced   590 angular points to   590 for atom    2.
 Pruned (  99, 590) grid will be used in numerical quadrature.
 IPart=  3 Atom number   2 atomic number  6 has       23114 grid points.
 IPart=  3 Atom   2 batch    5 overlaps   10 atoms,   115 shells and    10 DB shells.   NGrid=      1180
 Symmetry reduced   590 angular points to   590 for atom    2.
 Pruned (  99, 590) grid will be used in numerical quadrature.
 IPart=  7 Atom number   2 atomic number  6 has       23114 grid points.
 IPart=  7 Atom   2 batch    6 overlaps   10 atoms,   115 shells and    10 DB shells.   NGrid=      1180
 Symmetry reduced   590 angular points to   590 for atom    2.
 Pruned (  99, 590) grid will be used in numerical quadrature.
 IPart=  4 Atom number   2 atomic number  6 has       23114 grid points.
 IPart=  4 Atom   2 batch    7 overlaps   10 atoms,   115 shells and    10 DB shells.   NGrid=      1180
 Symmetry reduced   590 angular points to   590 for atom    2.
 Pruned (  99, 590) grid will be used in numerical quadrature.
 IPart=  2 Atom number   2 atomic number  6 has       23114 grid points.
 IPart=  2 Atom   2 batch    8 overlaps   10 atoms,   115 shells and    10 DB shells.   NGrid=      1180
 Symmetry reduced   590 angular points to   590 for atom    2.
 Pruned (  99, 590) grid will be used in numerical quadrature.
 Pruned (  99, 590) grid will be used in numerical quadrature.
 IPart=  6 Atom number   2 atomic number  6 has       23114 grid points.
 IPart= 15 Atom number   2 atomic number  6 has       23114 grid points.
 IPart=  6 Atom   2 batch    9 overlaps   10 atoms,   115 shells and    10 DB shells.   NGrid=      1180
 IPart= 15 Atom   2 batch   10 overlaps   10 atoms,   115 shells and    10 DB shells.   NGrid=      1180
 Symmetry reduced   590 angular points to   590 for atom    2.
 Symmetry reduced   590 angular points to   590 for atom    2.
 Pruned (  99, 590) grid will be used in numerical quadrature.
 IPart= 12 Atom number   2 atomic number  6 has       23114 grid points.
 IPart= 12 Atom   2 batch   11 overlaps   10 atoms,   114 shells and    10 DB shells.   NGrid=      1180
 Symmetry reduced   590 angular points to   590 for atom    2.
 Pruned (  99, 590) grid will be used in numerical quadrature.
 IPart= 14 Atom number   2 atomic number  6 has       23114 grid points.
 IPart= 14 Atom   2 batch   12 overlaps   10 atoms,   114 shells and    10 DB shells.   NGrid=       590
 Symmetry reduced   590 angular points to   590 for atom    2.
 Pruned (  99, 590) grid will be used in numerical quadrature.
 IPart=  5 Atom number   2 atomic number  6 has       23114 grid points.
 IPart=  5 Atom   2 batch   13 overlaps   10 atoms,   114 shells and    10 DB shells.   NGrid=       604
 Symmetry reduced   302 angular points to   302 for atom    2.
 IPart= 14 Atom   2 batch   14 overlaps   10 atoms,   114 shells and    10 DB shells.   NGrid=       604
 Symmetry reduced   302 angular points to   302 for atom    2.
 IPart= 13 Atom   2 batch   15 overlaps   10 atoms,   109 shells and    10 DB shells.   NGrid=       604
 Symmetry reduced   302 angular points to   302 for atom    2.
 IPart=  3 Atom   2 batch   16 overlaps   10 atoms,   102 shells and    10 DB shells.   NGrid=       604
 Symmetry reduced   302 angular points to   302 for atom    2.
 IPart=  5 Atom   2 batch   17 overlaps   10 atoms,    90 shells and    10 DB shells.   NGrid=       604
 Pruned (  99, 590) grid will be used in numerical quadrature.
 IPart=  1 Atom number   2 atomic number  6 has       23114 grid points.
 IPart=  1 Atom   2 batch   18 overlaps   10 atoms,    70 shells and    10 DB shells.   NGrid=       604
 Symmetry reduced   302 angular points to   302 for atom    2.
 IPart=  5 Atom   2 batch   19 overlaps   10 atoms,    50 shells and    10 DB shells.   NGrid=       604
 Pruned (  99, 590) grid will be used in numerical quadrature.
 IPart=  0 Atom number   2 atomic number  6 has       23114 grid points.
 IPart=  0 Atom   2 batch   20 overlaps   10 atoms,    32 shells and     6 DB shells.   NGrid=       604
 Symmetry reduced   302 angular points to   302 for atom    2.
 IPart=  5 Atom   2 batch   21 overlaps   10 atoms,    15 shells and     0 DB shells.   NGrid=       604
 IPart=  3 Atom   2 batch   22 overlaps   10 atoms,     6 shells and     0 DB shells.   NGrid=       604
 Pruned (  99, 590) grid will be used in numerical quadrature.
 Pruned (  99, 590) grid will be used in numerical quadrature.
 IPart=  0 Atom number   3 atomic number  7 has       23416 grid points.
 IPart=  1 Atom number   3 atomic number  7 has       23416 grid points.
 IPart=  0 Atom   3 batch    1 overlaps   10 atoms,   110 shells and    10 DB shells.   NGrid=      2408
 IPart=  1 Atom   3 batch    2 overlaps   10 atoms,   112 shells and    10 DB shells.   NGrid=      2522
 Symmetry reduced    86 angular points to    86 for atom    3.
 Symmetry reduced   194 angular points to   194 for atom    3.
 Pruned (  99, 590) grid will be used in numerical quadrature.
 IPart=  5 Atom number   3 atomic number  7 has       23416 grid points.
 IPart=  5 Atom   3 batch    3 overlaps   10 atoms,   114 shells and    10 DB shells.   NGrid=      2114
 Symmetry reduced   302 angular points to   302 for atom    3.
 Pruned (  99, 590) grid will be used in numerical quadrature.
 IPart=  3 Atom number   3 atomic number  7 has       23416 grid points.
 IPart=  3 Atom   3 batch    4 overlaps   10 atoms,   115 shells and    10 DB shells.   NGrid=      1180
 Symmetry reduced   590 angular points to   590 for atom    3.
 Pruned (  99, 590) grid will be used in numerical quadrature.
 IPart= 13 Atom number   3 atomic number  7 has       23416 grid points.
 IPart= 13 Atom   3 batch    5 overlaps   10 atoms,   115 shells and    10 DB shells.   NGrid=      1180
 Symmetry reduced   590 angular points to   590 for atom    3.
 Pruned (  99, 590) grid will be used in numerical quadrature.
 IPart= 12 Atom number   3 atomic number  7 has       23416 grid points.
 IPart= 12 Atom   3 batch    6 overlaps   10 atoms,   115 shells and    10 DB shells.   NGrid=      1180
 Symmetry reduced   590 angular points to   590 for atom    3.
 Pruned (  99, 590) grid will be used in numerical quadrature.
 Pruned (  99, 590) grid will be used in numerical quadrature.
 IPart=  7 Atom number   3 atomic number  7 has       23416 grid points.
 IPart= 14 Atom number   3 atomic number  7 has       23416 grid points.
 IPart=  7 Atom   3 batch    7 overlaps   10 atoms,   115 shells and    10 DB shells.   NGrid=      1180
 IPart= 14 Atom   3 batch    8 overlaps   10 atoms,   115 shells and    10 DB shells.   NGrid=      1180
 Symmetry reduced   590 angular points to   590 for atom    3.
 Symmetry reduced   590 angular points to   590 for atom    3.
 Pruned (  99, 590) grid will be used in numerical quadrature.
 IPart= 10 Atom number   2 atomic number  6 has       23114 grid points.
 Pruned (  99, 590) grid will be used in numerical quadrature.
 IPart= 10 Atom number   3 atomic number  7 has       23416 grid points.
 IPart= 10 Atom   3 batch    9 overlaps   10 atoms,   115 shells and    10 DB shells.   NGrid=      1180
 Symmetry reduced   590 angular points to   590 for atom    3.
 Pruned (  99, 590) grid will be used in numerical quadrature.
 IPart= 15 Atom number   3 atomic number  7 has       23416 grid points.
 IPart= 15 Atom   3 batch   10 overlaps   10 atoms,   115 shells and    10 DB shells.   NGrid=      1180
 Symmetry reduced   590 angular points to   590 for atom    3.
 Pruned (  99, 590) grid will be used in numerical quadrature.
 Pruned (  99, 590) grid will be used in numerical quadrature.
 Pruned (  99, 590) grid will be used in numerical quadrature.
 IPart=  2 Atom number   3 atomic number  7 has       23416 grid points.
 IPart=  6 Atom number   3 atomic number  7 has       23416 grid points.
 IPart=  2 Atom   3 batch   12 overlaps   10 atoms,   114 shells and    10 DB shells.   NGrid=       590
 IPart=  6 Atom   3 batch   13 overlaps   10 atoms,   114 shells and    10 DB shells.   NGrid=       604
 IPart=  4 Atom number   3 atomic number  7 has       23416 grid points.
 Symmetry reduced   302 angular points to   302 for atom    3.
 IPart=  4 Atom   3 batch   11 overlaps   10 atoms,   115 shells and    10 DB shells.   NGrid=      1180
 Symmetry reduced   590 angular points to   590 for atom    3.
 Symmetry reduced   590 angular points to   590 for atom    3.
 Pruned (  99, 590) grid will be used in numerical quadrature.
 IPart=  9 Atom number   3 atomic number  7 has       23416 grid points.
 IPart=  9 Atom   3 batch   14 overlaps   10 atoms,   114 shells and    10 DB shells.   NGrid=       604
 Symmetry reduced   302 angular points to   302 for atom    3.
 Pruned (  99, 590) grid will be used in numerical quadrature.
 IPart=  8 Atom number   3 atomic number  7 has       23416 grid points.
 IPart=  8 Atom   3 batch   15 overlaps   10 atoms,   112 shells and    10 DB shells.   NGrid=       604
 Symmetry reduced   302 angular points to   302 for atom    3.
 IPart=  2 Atom   3 batch   16 overlaps   10 atoms,   108 shells and    10 DB shells.   NGrid=       604
 Symmetry reduced   302 angular points to   302 for atom    3.
 Pruned (  99, 590) grid will be used in numerical quadrature.
 IPart= 11 Atom number   3 atomic number  7 has       23416 grid points.
 IPart= 11 Atom   3 batch   17 overlaps   10 atoms,   104 shells and    10 DB shells.   NGrid=       604
 Symmetry reduced   302 angular points to   302 for atom    3.
 IPart=  6 Atom   3 batch   18 overlaps   10 atoms,    85 shells and    10 DB shells.   NGrid=       604
 IPart=  6 Atom   3 batch   19 overlaps   10 atoms,    63 shells and    10 DB shells.   NGrid=       604
 IPart=  9 Atom   3 batch   20 overlaps   10 atoms,    44 shells and     9 DB shells.   NGrid=       604
 IPart=  9 Atom   3 batch   21 overlaps   10 atoms,    27 shells and     5 DB shells.   NGrid=       604
 IPart= 11 Atom   3 batch   22 overlaps   10 atoms,    12 shells and     0 DB shells.   NGrid=       604
 IPart=  8 Atom   3 batch   23 overlaps   10 atoms,     4 shells and     0 DB shells.   NGrid=       302
 Pruned (  99, 590) grid will be used in numerical quadrature.
 IPart=  6 Atom number   4 atomic number  6 has       23114 grid points.
 IPart=  6 Atom   4 batch    1 overlaps   10 atoms,   109 shells and    10 DB shells.   NGrid=      2408
 Symmetry reduced    86 angular points to    86 for atom    4.
 Pruned (  99, 590) grid will be used in numerical quadrature.
 IPart=  8 Atom number   4 atomic number  6 has       23114 grid points.
 IPart=  8 Atom   4 batch    2 overlaps   10 atoms,   113 shells and    10 DB shells.   NGrid=      2522
 Symmetry reduced   194 angular points to   194 for atom    4.
 Pruned (  99, 590) grid will be used in numerical quadrature.
 IPart=  3 Atom number   4 atomic number  6 has       23114 grid points.
 IPart=  3 Atom   4 batch    3 overlaps   10 atoms,   115 shells and    10 DB shells.   NGrid=      2114
 Symmetry reduced   302 angular points to   302 for atom    4.
 Pruned (  99, 590) grid will be used in numerical quadrature.
 IPart=  9 Atom number   4 atomic number  6 has       23114 grid points.
 IPart=  9 Atom   4 batch    4 overlaps   10 atoms,   115 shells and    10 DB shells.   NGrid=      1180
 Symmetry reduced   590 angular points to   590 for atom    4.
 Pruned (  99, 590) grid will be used in numerical quadrature.
 IPart= 11 Atom number   4 atomic number  6 has       23114 grid points.
 IPart= 11 Atom   4 batch    5 overlaps   10 atoms,   115 shells and    10 DB shells.   NGrid=      1180
 Symmetry reduced   590 angular points to   590 for atom    4.
 Pruned (  99, 590) grid will be used in numerical quadrature.
 IPart=  2 Atom number   4 atomic number  6 has       23114 grid points.
 IPart=  2 Atom   4 batch    6 overlaps   10 atoms,   115 shells and    10 DB shells.   NGrid=      1180
 Symmetry reduced   590 angular points to   590 for atom    4.
 Pruned (  99, 590) grid will be used in numerical quadrature.
 IPart= 13 Atom number   4 atomic number  6 has       23114 grid points.
 IPart= 13 Atom   4 batch    7 overlaps   10 atoms,   115 shells and    10 DB shells.   NGrid=      1180
 Symmetry reduced   590 angular points to   590 for atom    4.
 Pruned (  99, 590) grid will be used in numerical quadrature.
 IPart= 12 Atom number   4 atomic number  6 has       23114 grid points.
 IPart= 12 Atom   4 batch    8 overlaps   10 atoms,   115 shells and    10 DB shells.   NGrid=      1180
 Symmetry reduced   590 angular points to   590 for atom    4.
 Pruned (  99, 590) grid will be used in numerical quadrature.
 IPart=  7 Atom number   4 atomic number  6 has       23114 grid points.
 IPart=  7 Atom   4 batch    9 overlaps   10 atoms,   115 shells and    10 DB shells.   NGrid=      1180
 Symmetry reduced   590 angular points to   590 for atom    4.
 Pruned (  99, 590) grid will be used in numerical quadrature.
 IPart= 14 Atom number   4 atomic number  6 has       23114 grid points.
 IPart= 14 Atom   4 batch   10 overlaps   10 atoms,   115 shells and    10 DB shells.   NGrid=      1180
 Symmetry reduced   590 angular points to   590 for atom    4.
 Pruned (  99, 590) grid will be used in numerical quadrature.
 IPart=  4 Atom number   4 atomic number  6 has       23114 grid points.
 IPart=  4 Atom   4 batch   11 overlaps   10 atoms,   114 shells and    10 DB shells.   NGrid=      1180
 Symmetry reduced   590 angular points to   590 for atom    4.
 Pruned (  99, 590) grid will be used in numerical quadrature.
 IPart= 10 Atom number   4 atomic number  6 has       23114 grid points.
 IPart= 10 Atom   4 batch   12 overlaps   10 atoms,   114 shells and    10 DB shells.   NGrid=       590
 Symmetry reduced   590 angular points to   590 for atom    4.
 Pruned (  99, 590) grid will be used in numerical quadrature.
 IPart= 15 Atom number   4 atomic number  6 has       23114 grid points.
 IPart= 15 Atom   4 batch   13 overlaps   10 atoms,   114 shells and    10 DB shells.   NGrid=       604
 Symmetry reduced   302 angular points to   302 for atom    4.
 IPart= 10 Atom   4 batch   14 overlaps   10 atoms,   112 shells and    10 DB shells.   NGrid=       604
 Symmetry reduced   302 angular points to   302 for atom    4.
 IPart= 15 Atom   4 batch   15 overlaps   10 atoms,   109 shells and    10 DB shells.   NGrid=       604
 Pruned (  99, 590) grid will be used in numerical quadrature.
 IPart=  5 Atom number   4 atomic number  6 has       23114 grid points.
 IPart=  5 Atom   4 batch   16 overlaps   10 atoms,    98 shells and    10 DB shells.   NGrid=       604
 Symmetry reduced   302 angular points to   302 for atom    4.
 Pruned (  99, 590) grid will be used in numerical quadrature.
 IPart=  0 Atom number   4 atomic number  6 has       23114 grid points.
 IPart=  0 Atom   4 batch   17 overlaps   10 atoms,    91 shells and    10 DB shells.   NGrid=       604
 Symmetry reduced   302 angular points to   302 for atom    4.
 Pruned (  99, 590) grid will be used in numerical quadrature.
 IPart=  1 Atom number   4 atomic number  6 has       23114 grid points.
 IPart=  1 Atom   4 batch   18 overlaps   10 atoms,    67 shells and    10 DB shells.   NGrid=       604
 Symmetry reduced   302 angular points to   302 for atom    4.
 IPart=  5 Atom   4 batch   19 overlaps   10 atoms,    52 shells and    10 DB shells.   NGrid=       604
 IPart=  0 Atom   4 batch   20 overlaps   10 atoms,    32 shells and     6 DB shells.   NGrid=       604
 IPart=  9 Atom   4 batch   21 overlaps   10 atoms,    15 shells and     0 DB shells.   NGrid=       604
 Symmetry reduced   302 angular points to   302 for atom    4.
 IPart= 11 Atom   4 batch   22 overlaps   10 atoms,     7 shells and     0 DB shells.   NGrid=       604
 Symmetry reduced   302 angular points to   302 for atom    4.
 Pruned (  99, 590) grid will be used in numerical quadrature.
 IPart= 15 Atom number   5 atomic number  7 has       23416 grid points.
 IPart= 15 Atom   5 batch    1 overlaps   10 atoms,   110 shells and    10 DB shells.   NGrid=      2408
 Symmetry reduced    86 angular points to    86 for atom    5.
 Pruned (  99, 590) grid will be used in numerical quadrature.
 IPart=  2 Atom number   5 atomic number  7 has       23416 grid points.
 IPart=  2 Atom   5 batch    2 overlaps   10 atoms,   112 shells and    10 DB shells.   NGrid=      2522
 Symmetry reduced   194 angular points to   194 for atom    5.
 Pruned (  99, 590) grid will be used in numerical quadrature.
 IPart=  0 Atom number   5 atomic number  7 has       23416 grid points.
 IPart=  0 Atom   5 batch    3 overlaps   10 atoms,   114 shells and    10 DB shells.   NGrid=      2114
 Symmetry reduced   302 angular points to   302 for atom    5.
 Pruned (  99, 590) grid will be used in numerical quadrature.
 IPart=  9 Atom number   5 atomic number  7 has       23416 grid points.
 IPart=  9 Atom   5 batch    4 overlaps   10 atoms,   115 shells and    10 DB shells.   NGrid=      1180
 Symmetry reduced   590 angular points to   590 for atom    5.
 Pruned (  99, 590) grid will be used in numerical quadrature.
 IPart=  5 Atom number   5 atomic number  7 has       23416 grid points.
 Pruned (  99, 590) grid will be used in numerical quadrature.
 IPart=  5 Atom   5 batch    5 overlaps   10 atoms,   115 shells and    10 DB shells.   NGrid=      1180
 IPart= 10 Atom number   5 atomic number  7 has       23416 grid points.
 IPart= 10 Atom   5 batch    6 overlaps   10 atoms,   115 shells and    10 DB shells.   NGrid=      1180
 Symmetry reduced   590 angular points to   590 for atom    5.
 Symmetry reduced   590 angular points to   590 for atom    5.
 Pruned (  99, 590) grid will be used in numerical quadrature.
 IPart=  4 Atom number   5 atomic number  7 has       23416 grid points.
 IPart=  4 Atom   5 batch    7 overlaps   10 atoms,   115 shells and    10 DB shells.   NGrid=      1180
 Symmetry reduced   590 angular points to   590 for atom    5.
 Pruned (  99, 590) grid will be used in numerical quadrature.
 IPart= 11 Atom number   5 atomic number  7 has       23416 grid points.
[...]
 2953 Fit       0.135503
 2954 Fit       0.134623
 2955 Fit       0.134623
 2956 Fit       0.135503
 2957 Fit       0.137325
 2958 Fit       0.140207
 2959 Fit       0.142095
 2960 Fit       0.138624
 2961 Fit       0.136290
 2962 Fit       0.134951
 2963 Fit       0.134578
 2964 Fit       0.135014
 2965 Fit       0.136361
 2966 Fit       0.138737
 2967 Fit       0.137410
 2968 Fit       0.135568
 2969 Fit       0.134686
 2970 Fit       0.134686
 2971 Fit       0.135568
 2972 Fit       0.137410
 2973 Fit       0.138737
 2974 Fit       0.136361
 2975 Fit       0.135014
 2976 Fit       0.135226
 2977 Fit       0.135690
 2978 Fit       0.137132
 2979 Fit       0.136281
 2980 Fit       0.135341
 2981 Fit       0.135341
 2982 Fit       0.136281
 2983 Fit       0.137132
 2984 Fit       0.135690
 2985 Fit       0.136464
 2986 Fit       0.136946
 2987 Fit       0.137562
 2988 Fit       0.136583
 2989 Fit       0.136583
 2990 Fit       0.137562
 2991 Fit       0.136946
 2992 Fit       0.138287
 2993 Fit       0.138409
 2994 Fit       0.138409
 2995 Fit       0.140664
 2996 Fit       0.153114
 2997 Fit       0.153523
 2998 Fit       0.149215
 2999 Fit       0.149813
 3000 Fit       0.148868
 3001 Fit       0.144904
 3002 Fit       0.145628
 3003 Fit       0.147403
 3004 Fit       0.146406
 3005 Fit       0.145115
 3006 Fit       0.141458
 3007 Fit       0.142318
 3008 Fit       0.144216
 3009 Fit       0.143150
 3010 Fit       0.141746
 3011 Fit       0.141474
 3012 Fit       0.138764
 3013 Fit       0.138567
 3014 Fit       0.139500
 3015 Fit       0.141445
 3016 Fit       0.141445
 3017 Fit       0.139500
 3018 Fit       0.138567
 3019 Fit       0.138764
 3020 Fit       0.137629
 3021 Fit       0.136388
 3022 Fit       0.136248
 3023 Fit       0.137136
 3024 Fit       0.138966
 3025 Fit       0.140199
 3026 Fit       0.137940
 3027 Fit       0.136568
 3028 Fit       0.136185
 3029 Fit       0.136866
 3030 Fit       0.135771
 3031 Fit       0.134644
 3032 Fit       0.134533
 3033 Fit       0.135375
 3034 Fit       0.137096
 3035 Fit       0.139597
 3036 Fit       0.138257
 3037 Fit       0.136131
 3038 Fit       0.134839
 3039 Fit       0.134465
 3040 Fit       0.135076
 3041 Fit       0.136736
 3042 Fit       0.134560
 3043 Fit       0.133503
 3044 Fit       0.133449
 3045 Fit       0.134327
 3046 Fit       0.136058
 3047 Fit       0.138537
 3048 Fit       0.140012
 3049 Fit       0.137212
 3050 Fit       0.135091
 3051 Fit       0.133776
 3052 Fit       0.133355
 3053 Fit       0.133902
 3054 Fit       0.135485
 3055 Fit       0.138172
 3056 Fit       0.136686
 3057 Fit       0.133956
 3058 Fit       0.132985
 3059 Fit       0.132977
 3060 Fit       0.133854
 3061 Fit       0.135530
 3062 Fit       0.137893
 3063 Fit       0.140787
 3064 Fit       0.139286
 3065 Fit       0.136634
 3066 Fit       0.134598
 3067 Fit       0.133309
 3068 Fit       0.132865
 3069 Fit       0.133346
 3070 Fit       0.134825
 3071 Fit       0.137380
 3072 Fit       0.139085
 3073 Fit       0.135964
 3074 Fit       0.133956
 3075 Fit       0.133109
 3076 Fit       0.133158
 3077 Fit       0.134023
 3078 Fit       0.135612
 3079 Fit       0.137807
 3080 Fit       0.140450
 3081 Fit       0.143329
 3082 Fit       0.141876
 3083 Fit       0.139084
 3084 Fit       0.136642
 3085 Fit       0.134733
 3086 Fit       0.133494
 3087 Fit       0.133026
 3088 Fit       0.133415
 3089 Fit       0.134740
 3090 Fit       0.135113
 3091 Fit       0.136781
 3092 Fit       0.138987
 3093 Fit       0.141543
 3094 Fit       0.144210
 3095 Fit       0.145496
 3096 Fit       0.142880
 3097 Fit       0.140235
 3098 Fit       0.137827
 3099 Fit       0.135870
 3100 Fit       0.134526
 3101 Fit       0.146411
 3102 Fit       0.148488
 3103 Fit       0.149882
 3104 Fit       0.150373
 3105 Fit       0.149882
 3106 Fit       0.148488
 3107 Fit       0.146411
 3108 Fit       0.142395
 3109 Fit       0.143246
 3110 Fit       0.143773
 3111 Fit       0.143883
 3112 Fit       0.143557
 3113 Fit       0.142853
 3114 Fit       0.141895
 3115 Fit       0.133644
 3116 Fit       0.134175
 3117 Fit       0.134764
 3118 Fit       0.135288
 3119 Fit       0.135647
 3120 Fit       0.135774
 3121 Fit       0.135647
 3122 Fit       0.135288
 3123 Fit       0.134764
 3124 Fit       0.134175
 3125 Fit       0.133644
 3126 Fit       0.128747
 3127 Fit       0.128830
 3128 Fit       0.129095
 3129 Fit       0.129426
 3130 Fit       0.129724
 3131 Fit       0.129915
 3132 Fit       0.129956
 3133 Fit       0.129837
 3134 Fit       0.129585
 3135 Fit       0.129259
 3136 Fit       0.128948
 3137 Fit       0.128758
 3138 Fit       0.128814
 3139 Fit       0.125772
 3140 Fit       0.125395
 3141 Fit       0.125314
 3142 Fit       0.125405
 3143 Fit       0.125564
 3144 Fit       0.125707
 3145 Fit       0.125778
 3146 Fit       0.125754
 3147 Fit       0.125641
 3148 Fit       0.125482
 3149 Fit       0.125345
 3150 Fit       0.125325
 3151 Fit       0.125538
 3152 Fit       0.126116
 3153 Fit       0.124402
 3154 Fit       0.123477
 3155 Fit       0.122980
 3156 Fit       0.122769
 3157 Fit       0.122728
 3158 Fit       0.122763
 3159 Fit       0.122805
 3160 Fit       0.122815
 3161 Fit       0.122786
 3162 Fit       0.122741
 3163 Fit       0.122734
 3164 Fit       0.122846
 3165 Fit       0.123184
 3166 Fit       0.123876
 3167 Fit       0.125076
 3168 Fit       0.124450
 3169 Fit       0.122805
 3170 Fit       0.121793
 3171 Fit       0.121226
 3172 Fit       0.120950
 3173 Fit       0.120841
 3174 Fit       0.120809
 3175 Fit       0.120806
 3176 Fit       0.120819
 3177 Fit       0.120881
 3178 Fit       0.121060
 3179 Fit       0.121464
 3180 Fit       0.122232
 3181 Fit       0.123535
 3182 Fit       0.125578
 3183 Fit       0.123426
 3184 Fit       0.121719
 3185 Fit       0.120659
 3186 Fit       0.120054
 3187 Fit       0.119745
 3188 Fit       0.119614
 3189 Fit       0.119591
 3190 Fit       0.119663
 3191 Fit       0.119871
 3192 Fit       0.120310
 3193 Fit       0.121120
 3194 Fit       0.122479
 3195 Fit       0.124585
 3196 Fit       0.127629
 3197 Fit       0.125981
 3198 Fit       0.122735
 3199 Fit       0.120981
 3200 Fit       0.119919
 3201 Fit       0.119350
 3202 Fit       0.119111
 3203 Fit       0.119111
 3204 Fit       0.119350
 3205 Fit       0.119919
 3206 Fit       0.120981
 3207 Fit       0.122735
 3208 Fit       0.125329
 3209 Fit       0.128691
 3210 Fit       0.128691
 3211 Fit       0.125329
 3212 Fit       0.122294
 3213 Fit       0.120494
 3214 Fit       0.119554
 3215 Fit       0.119273
 3216 Fit       0.119554
 3217 Fit       0.120494
 3218 Fit       0.122294
 3219 Fit       0.124947
 3220 Fit       0.127707
 3221 Fit       0.128962
 3222 Fit       0.127707
 3223 Fit       0.124947
 3224 Fit       0.122051
 3225 Fit       0.120408
 3226 Fit       0.120408
 3227 Fit       0.122051
 3228 Fit       0.124354
 3229 Fit       0.124354
 3230 Fit       0.121973
 3231 Fit       0.141895
 3232 Fit       0.142853
 3233 Fit       0.143557
 3234 Fit       0.143883
 3235 Fit       0.143773
 3236 Fit       0.143246
 3237 Fit       0.142395
 3238 Fit       0.133644
 3239 Fit       0.134175
 3240 Fit       0.134764
 3241 Fit       0.135288
 3242 Fit       0.135647
 3243 Fit       0.135774
 3244 Fit       0.135647
 3245 Fit       0.135288
 3246 Fit       0.134764
 3247 Fit       0.134175
 3248 Fit       0.133644
 3249 Fit       0.128814
 3250 Fit       0.128758
 3251 Fit       0.128948
 3252 Fit       0.129259
 3253 Fit       0.129585
 3254 Fit       0.129837
 3255 Fit       0.129956
 3256 Fit       0.129915
 3257 Fit       0.129724
 3258 Fit       0.129426
 3259 Fit       0.129095
 3260 Fit       0.128830
 3261 Fit       0.128747
 3262 Fit       0.126116
 3263 Fit       0.125538
 3264 Fit       0.125325
 3265 Fit       0.125345
 3266 Fit       0.125482
 3267 Fit       0.125641
 3268 Fit       0.125754
 3269 Fit       0.125778
 3270 Fit       0.125707
 3271 Fit       0.125564
 3272 Fit       0.125405
 3273 Fit       0.125314
 3274 Fit       0.125395
 3275 Fit       0.125772
 3276 Fit       0.125076
 3277 Fit       0.123876
 3278 Fit       0.123184
 3279 Fit       0.122846
 3280 Fit       0.122734
 3281 Fit       0.122741
 3282 Fit       0.122786
 3283 Fit       0.122815
 3284 Fit       0.122805
 3285 Fit       0.122763
 3286 Fit       0.122728
 3287 Fit       0.122769
 3288 Fit       0.122980
 3289 Fit       0.123477
 3290 Fit       0.124402
 3291 Fit       0.124450
 3292 Fit       0.125578
 3293 Fit       0.123535
 3294 Fit       0.122232
 3295 Fit       0.121464
 3296 Fit       0.121060
 3297 Fit       0.120881
 3298 Fit       0.120819
 3299 Fit       0.120806
 3300 Fit       0.120809
 3301 Fit       0.120841
 3302 Fit       0.120950
 3303 Fit       0.121226
 3304 Fit       0.121793
 3305 Fit       0.122805
 3306 Fit       0.123426
 3307 Fit       0.125981
 3308 Fit       0.127629
 3309 Fit       0.124585
 3310 Fit       0.122479
 3311 Fit       0.121120
 3312 Fit       0.120310
 3313 Fit       0.119871
 3314 Fit       0.119663
 3315 Fit       0.119591
 3316 Fit       0.119614
 3317 Fit       0.119745
 3318 Fit       0.120054
 3319 Fit       0.120659
 3320 Fit       0.121719
 3321 Fit       0.122735
 3322 Fit       0.125329
 3323 Fit       0.128691
 3324 Fit       0.128691
 3325 Fit       0.125329
 3326 Fit       0.122735
 3327 Fit       0.120981
 3328 Fit       0.119919
 3329 Fit       0.119350
 3330 Fit       0.119111
 3331 Fit       0.119111
 3332 Fit       0.119350
 3333 Fit       0.119919
 3334 Fit       0.120981
 3335 Fit       0.122294
 3336 Fit       0.124947
 3337 Fit       0.127707
 3338 Fit       0.128962
 3339 Fit       0.127707
 3340 Fit       0.124947
 3341 Fit       0.122294
 3342 Fit       0.120494
 3343 Fit       0.119554
 3344 Fit       0.119273
 3345 Fit       0.119554
 3346 Fit       0.120494
 3347 Fit       0.122051
 3348 Fit       0.124354
 3349 Fit       0.124354
 3350 Fit       0.122051
 3351 Fit       0.120408
 3352 Fit       0.120408
 3353 Fit       0.121973
 3354 Fit       0.155721
 3355 Fit       0.155721
 3356 Fit       0.153668
 3357 Fit       0.149758
 3358 Fit       0.148553
 3359 Fit       0.149758
 3360 Fit       0.153668
 3361 Fit       0.147766
 3362 Fit       0.145367
 3363 Fit       0.144265
 3364 Fit       0.144265
 3365 Fit       0.145367
 3366 Fit       0.147766
 3367 Fit       0.147703
 3368 Fit       0.144609
 3369 Fit       0.142632
 3370 Fit       0.141493
 3371 Fit       0.141032
 3372 Fit       0.141184
 3373 Fit       0.141970
 3374 Fit       0.143501
 3375 Fit       0.145993
 3376 Fit       0.145912
 3377 Fit       0.143082
 3378 Fit       0.141161
 3379 Fit       0.139912
 3380 Fit       0.139183
 3381 Fit       0.138886
 3382 Fit       0.138984
 3383 Fit       0.139490
 3384 Fit       0.140464
 3385 Fit       0.142025
 3386 Fit       0.144364
 3387 Fit       0.142029
 3388 Fit       0.140248
 3389 Fit       0.139014
 3390 Fit       0.138200
 3391 Fit       0.137719
 3392 Fit       0.137522
 3393 Fit       0.137587
 3394 Fit       0.137922
 3395 Fit       0.138561
 3396 Fit       0.139572
 3397 Fit       0.141060
 3398 Fit       0.143181
 3399 Fit       0.141183
 3400 Fit       0.139558
 3401 Fit       0.138412
 3402 Fit       0.137630
 3403 Fit       0.137134
 3404 Fit       0.136873
 3405 Fit       0.136823
 3406 Fit       0.136976
 3407 Fit       0.137350
 3408 Fit       0.137981
 3409 Fit       0.138933
 3410 Fit       0.140302
 3411 Fit       0.140984
 3412 Fit       0.139490
 3413 Fit       0.138415
 3414 Fit       0.137661
 3415 Fit       0.137158
 3416 Fit       0.136859
 3417 Fit       0.136735
 3418 Fit       0.136776
 3419 Fit       0.136985
 3420 Fit       0.137382
 3421 Fit       0.138003
 3422 Fit       0.138907
 3423 Fit       0.140177
 3424 Fit       0.140634
 3425 Fit       0.139434
 3426 Fit       0.138567
 3427 Fit       0.137961
 3428 Fit       0.137561
 3429 Fit       0.137335
 3430 Fit       0.137261
 3431 Fit       0.137335
 3432 Fit       0.137561
 3433 Fit       0.137961
 3434 Fit       0.138567
 3435 Fit       0.139434
 3436 Fit       0.140634
 3437 Fit       0.141061
 3438 Fit       0.140064
 3439 Fit       0.139358
 3440 Fit       0.138882
 3441 Fit       0.138597
 3442 Fit       0.138479
 3443 Fit       0.138518
 3444 Fit       0.138717
 3445 Fit       0.139094
 3446 Fit       0.139679
 3447 Fit       0.140522
 3448 Fit       0.141960
 3449 Fit       0.141254
 3450 Fit       0.140798
 3451 Fit       0.140556
 3452 Fit       0.140508
 3453 Fit       0.140652
 3454 Fit       0.140997
 3455 Fit       0.141573
 3456 Fit       0.142424
 3457 Fit       0.144964
 3458 Fit       0.144223
 3459 Fit       0.143776
 3460 Fit       0.143590
 3461 Fit       0.143652
 3462 Fit       0.143966
 3463 Fit       0.144554
 3464 Fit       0.148417
 3465 Fit       0.148122
 3466 Fit       0.148220
 3467 Fit       0.129869
 3468 Fit       0.130019
 3469 Fit       0.130214
 3470 Fit       0.130214
 3471 Fit       0.130019
 3472 Fit       0.130214
 3473 Fit       0.130214
 3474 Fit       0.130479
 3475 Fit       0.130741
 3476 Fit       0.131276
 3477 Fit       0.131548
 3478 Fit       0.131276
 3479 Fit       0.130741
 3480 Fit       0.130479
 3481 Fit       0.130741
 3482 Fit       0.131276
 3483 Fit       0.131548
 3484 Fit       0.131276
 3485 Fit       0.130741
 3486 Fit       0.131273
 3487 Fit       0.131552
 3488 Fit       0.132277
 3489 Fit       0.133132
 3490 Fit       0.133711
 3491 Fit       0.133711
 3492 Fit       0.133132
 3493 Fit       0.132277
 3494 Fit       0.131552
 3495 Fit       0.131273
 3496 Fit       0.131552
 3497 Fit       0.132277
 3498 Fit       0.133132
 3499 Fit       0.133711
 3500 Fit       0.133711
 3501 Fit       0.133132
 3502 Fit       0.132277
 3503 Fit       0.131552
 3504 Fit       0.132443
 3505 Fit       0.132757
 3506 Fit       0.133631
 3507 Fit       0.134863
 3508 Fit       0.136119
 3509 Fit       0.137003
 3510 Fit       0.137198
 3511 Fit       0.136631
 3512 Fit       0.135513
 3513 Fit       0.134220
 3514 Fit       0.133133
 3515 Fit       0.132523
 3516 Fit       0.132523
 3517 Fit       0.133133
 3518 Fit       0.134220
 3519 Fit       0.135513
 3520 Fit       0.136631
 3521 Fit       0.137198
 3522 Fit       0.137003
 3523 Fit       0.136119
 3524 Fit       0.134863
 3525 Fit       0.133631
 3526 Fit       0.132757
 3527 Fit       0.134053
 3528 Fit       0.134417
 3529 Fit       0.135466
 3530 Fit       0.137062
 3531 Fit       0.138943
 3532 Fit       0.140712
 3533 Fit       0.141909
 3534 Fit       0.142170
 3535 Fit       0.141410
 3536 Fit       0.139870
 3537 Fit       0.137989
 3538 Fit       0.136209
 3539 Fit       0.134862
 3540 Fit       0.134145
 3541 Fit       0.134145
 3542 Fit       0.134862
 3543 Fit       0.136209
 3544 Fit       0.137989
 3545 Fit       0.139870
 3546 Fit       0.141410
 3547 Fit       0.142170
 3548 Fit       0.141909
 3549 Fit       0.140712
 3550 Fit       0.138943
 3551 Fit       0.137062
 3552 Fit       0.135466
 3553 Fit       0.134417
 3554 Fit       0.136186
 3555 Fit       0.136590
 3556 Fit       0.137784
 3557 Fit       0.139693
 3558 Fit       0.142151
 3559 Fit       0.144845
 3560 Fit       0.147292
 3561 Fit       0.148922
 3562 Fit       0.149275
 3563 Fit       0.148244
 3564 Fit       0.146135
 3565 Fit       0.143495
 3566 Fit       0.140869
 3567 Fit       0.138657
 3568 Fit       0.137091
 3569 Fit       0.136287
 3570 Fit       0.136287
 3571 Fit       0.137091
 3572 Fit       0.138657
 3573 Fit       0.140869
 3574 Fit       0.143495
 3575 Fit       0.146135
 3576 Fit       0.148244
 3577 Fit       0.149275
 3578 Fit       0.148922
 3579 Fit       0.147292
 3580 Fit       0.144845
 3581 Fit       0.142151
 3582 Fit       0.139693
 3583 Fit       0.137784
 3584 Fit       0.136590
 3585 Fit       0.155721
 3586 Fit       0.155721
 3587 Fit       0.153668
 3588 Fit       0.149758
 3589 Fit       0.148553
 3590 Fit       0.149758
 3591 Fit       0.153668
 3592 Fit       0.147766
 3593 Fit       0.145367
 3594 Fit       0.144265
 3595 Fit       0.144265
 3596 Fit       0.145367
 3597 Fit       0.147766
 3598 Fit       0.145993
 3599 Fit       0.143501
 3600 Fit       0.141970
 3601 Fit       0.141184
 3602 Fit       0.141032
 3603 Fit       0.141493
 3604 Fit       0.142632
 3605 Fit       0.144609
 3606 Fit       0.147703
 3607 Fit       0.144364
 3608 Fit       0.142025
 3609 Fit       0.140464
 3610 Fit       0.139490
 3611 Fit       0.138984
 3612 Fit       0.138886
 3613 Fit       0.139183
 3614 Fit       0.139912
 3615 Fit       0.141161
 3616 Fit       0.143082
 3617 Fit       0.145912
 3618 Fit       0.143181
 3619 Fit       0.141060
 3620 Fit       0.139572
 3621 Fit       0.138561
 3622 Fit       0.137922
 3623 Fit       0.137587
 3624 Fit       0.137522
 3625 Fit       0.137719
 3626 Fit       0.138200
 3627 Fit       0.139014
 3628 Fit       0.140248
 3629 Fit       0.142029
 3630 Fit       0.140302
 3631 Fit       0.138933
 3632 Fit       0.137981
 3633 Fit       0.137350
 3634 Fit       0.136976
 3635 Fit       0.136823
 3636 Fit       0.136873
 3637 Fit       0.137134
 3638 Fit       0.137630
 3639 Fit       0.138412
 3640 Fit       0.139558
 3641 Fit       0.141183
 3642 Fit       0.140177
 3643 Fit       0.138907
 3644 Fit       0.138003
 3645 Fit       0.137382
 3646 Fit       0.136985
 3647 Fit       0.136776
 3648 Fit       0.136735
 3649 Fit       0.136859
 3650 Fit       0.137158
 3651 Fit       0.137661
 3652 Fit       0.138415
 3653 Fit       0.139490
 3654 Fit       0.140984
 3655 Fit       0.140634
 3656 Fit       0.139434
 3657 Fit       0.138567
 3658 Fit       0.137961
 3659 Fit       0.137561
 3660 Fit       0.137335
 3661 Fit       0.137261
 3662 Fit       0.137335
 3663 Fit       0.137561
 3664 Fit       0.137961
 3665 Fit       0.138567
 3666 Fit       0.139434
 3667 Fit       0.140634
 3668 Fit       0.140522
 3669 Fit       0.139679
 3670 Fit       0.139094
 3671 Fit       0.138717
 3672 Fit       0.138518
 3673 Fit       0.138479
 3674 Fit       0.138597
 3675 Fit       0.138882
 3676 Fit       0.139358
 3677 Fit       0.140064
 3678 Fit       0.141061
 3679 Fit       0.142424
 3680 Fit       0.141573
 3681 Fit       0.140997
 3682 Fit       0.140652
 3683 Fit       0.140508
 3684 Fit       0.140556
 3685 Fit       0.140798
 3686 Fit       0.141254
 3687 Fit       0.141960
 3688 Fit       0.144554
 3689 Fit       0.143966
 3690 Fit       0.143652
 3691 Fit       0.143590
 3692 Fit       0.143776
 3693 Fit       0.144223
 3694 Fit       0.144964
 3695 Fit       0.148220
 3696 Fit       0.148122
 3697 Fit       0.148417
 -----------------------------------------------------------------
 Leave Link  602 at Tue Sep 30 17:12:51 2025, MaxMem=  4294967296 cpu:               2.5 elap:               0.2
 (Enter /software/sse/easybuild/prefix/software/Gaussian/16.C.01-avx2-nsc1/g16/l9999.exe)

 Test job not archived.
 1\1\NSC-N78\FOpt\RMP2-FC\Aug-CC-pVTZ\C3H5N2(1+)\X_DAVVA\30-Sep-2025\0\
 \#P MP2/aug-cc-pvtz Opt=tight density=MP2 Pop=(MK,Hirshfeld) iop(6/33=
 2) iop(6/42=6) maxdisk=128GB\\imidazolium\\1,1\C,0.,-0.6841190898,0.97
 25775604\C,0.,0.6841190898,0.9725775604\N,0.,1.070774744,-0.3439951295
 \C,0.,0.,-1.1416942492\N,0.,-1.070774744,-0.3439951295\H,0.,-1.3894600
 03,1.7837015907\H,0.,1.389460003,1.7837015907\H,0.,2.0262276812,-0.676
 7608387\H,0.,0.,-2.2172721164\H,0.,-2.0262276812,-0.6767608387\\Versio
 n=ES64L-G16RevC.01\State=1-A1\HF=-225.2784911\MP2=-226.1612254\RMSD=4.
 520e-09\RMSF=4.902e-06\Dipole=0.,0.,0.5019759\Quadrupole=-7.651349,5.3
 665682,2.2847808,0.,0.,0.\PG=C02V [C2(C1H1),SGV(C2H4N2)]\\@


 A MAN IS EXACTLY AS GREAT AS THE TIDE SURGING
 BENEATH HIM.      - BISMARCK
 Job cpu time:       0 days  3 hours 29 minutes 38.7 seconds.
 Elapsed time:       0 days  0 hours 13 minutes 56.2 seconds.
 File lengths (MBytes):  RWF=  11082 Int=      0 D2E=      0 Chk=     20 Scr=      1
 Normal termination of Gaussian 16 at Tue Sep 30 17:12:51 2025.
