 Entering Gaussian System, Link 0=/software/sse/easybuild/prefix/software/Gaussian/16.C.01-avx2-nsc1/g16/g16.orig
 Input=formate.wrap
 Output=formate.log
 Initial command:
 /software/sse/easybuild/prefix/software/Gaussian/16.C.01-avx2-nsc1/g16/l1.exe "/scratch/local/Gau-3569535.inp" -scrdir="/scratch/local/"
 Entering Link 1 = /software/sse/easybuild/prefix/software/Gaussian/16.C.01-avx2-nsc1/g16/l1.exe PID=   3569536.
  
 Copyright (c) 1988-2019, Gaussian, Inc.  All Rights Reserved.
  
 This is part of the Gaussian(R) 16 program.  It is based on
 the Gaussian(R) 09 system (copyright 2009, Gaussian, Inc.),
 the Gaussian(R) 03 system (copyright 2003, Gaussian, Inc.),
 the Gaussian(R) 98 system (copyright 1998, Gaussian, Inc.),
 the Gaussian(R) 94 system (copyright 1995, Gaussian, Inc.),
 the Gaussian 92(TM) system (copyright 1992, Gaussian, Inc.),
 the Gaussian 90(TM) system (copyright 1990, Gaussian, Inc.),
 the Gaussian 88(TM) system (copyright 1988, Gaussian, Inc.),
 the Gaussian 86(TM) system (copyright 1986, Carnegie Mellon
 University), and the Gaussian 82(TM) system (copyright 1983,
 Carnegie Mellon University). Gaussian is a federally registered
 trademark of Gaussian, Inc.
  
 This software contains proprietary and confidential information,
 including trade secrets, belonging to Gaussian, Inc.
  
 This software is provided under written license and may be
 used, copied, transmitted, or stored only in accord with that
 written license.
  
 The following legend is applicable only to US Government
 contracts under FAR:
  
                    RESTRICTED RIGHTS LEGEND
  
 Use, reproduction and disclosure by the US Government is
 subject to restrictions as set forth in subparagraphs (a)
 and (c) of the Commercial Computer Software - Restricted
 Rights clause in FAR 52.227-19.
  
 Gaussian, Inc.
 340 Quinnipiac St., Bldg. 40, Wallingford CT 06492
  
  
 ---------------------------------------------------------------
 Warning -- This program may not be used in any manner that
 competes with the business of Gaussian, Inc. or will provide
 assistance to any competitor of Gaussian, Inc.  The licensee
 of this program is prohibited from giving any competitor of
 Gaussian, Inc. access to this program.  By using this program,
 the user acknowledges that Gaussian, Inc. is engaged in the
 business of creating and licensing software in the field of
 computational chemistry and represents and warrants to the
 licensee that it is not a competitor of Gaussian, Inc. and that
 it will not use this program in any manner prohibited above.
 ---------------------------------------------------------------
  

 Cite this work as:
 Gaussian 16, Revision C.01,
 M. J. Frisch, G. W. Trucks, H. B. Schlegel, G. E. Scuseria, 
 M. A. Robb, J. R. Cheeseman, G. Scalmani, V. Barone, 
 G. A. Petersson, H. Nakatsuji, X. Li, M. Caricato, A. V. Marenich, 
 J. Bloino, B. G. Janesko, R. Gomperts, B. Mennucci, H. P. Hratchian, 
 J. V. Ortiz, A. F. Izmaylov, J. L. Sonnenberg, D. Williams-Young, 
 F. Ding, F. Lipparini, F. Egidi, J. Goings, B. Peng, A. Petrone, 
 T. Henderson, D. Ranasinghe, V. G. Zakrzewski, J. Gao, N. Rega, 
 G. Zheng, W. Liang, M. Hada, M. Ehara, K. Toyota, R. Fukuda, 
 J. Hasegawa, M. Ishida, T. Nakajima, Y. Honda, O. Kitao, H. Nakai, 
 T. Vreven, K. Throssell, J. A. Montgomery, Jr., J. E. Peralta, 
 F. Ogliaro, M. J. Bearpark, J. J. Heyd, E. N. Brothers, K. N. Kudin, 
 V. N. Staroverov, T. A. Keith, R. Kobayashi, J. Normand, 
 K. Raghavachari, A. P. Rendell, J. C. Burant, S. S. Iyengar, 
 J. Tomasi, M. Cossi, J. M. Millam, M. Klene, C. Adamo, R. Cammi, 
 J. W. Ochterski, R. L. Martin, K. Morokuma, O. Farkas, 
 J. B. Foresman, and D. J. Fox, Gaussian, Inc., Wallingford CT, 2019.
 
 ******************************************
 Gaussian 16:  ES64L-G16RevC.01  3-Jul-2019
                28-Sep-2025 
 ******************************************
 %mem=12000MB
 %nprocshared=8
 Will use up to    8 processors via shared memory.
 %chk=water19.chk
 ----------------------------------------------------------------------
 #P HF/aug-cc-pvtz Opt=(Redundant, calcall, verytight) symm=(loose,foll
 ow) Pop=(MK,Hirshfeld,ReadRadii) iop(6/33=2) iop(6/42=6) Polar Freq ma
 xdisk=128GB
 ----------------------------------------------------------------------
 1/7=1,10=4,18=20,19=15,38=1/1,3;
 2/9=110,12=2,17=4,18=3,40=1/2;
 3/5=16,6=1,7=10,11=9,25=1,30=1,71=2,140=1/1,2,3;
 4//1;
 5/5=2,38=5,98=1/2;
 8/6=4,10=90,11=11/1;
 11/6=1,8=1,9=11,15=111,16=1/1,2,10;
 10/6=1/2;
 6/7=2,8=2,9=2,10=2,15=8,18=1,20=101,28=1,33=2,42=6,79=1/1,2;
 7/10=1,25=1/1,2,3,16;
 1/7=1,10=4,18=20,19=15/3(3);
 2/9=110,15=5/2;
 7/8=1,9=1,25=1,44=-1/16;
 99//99;
 2/9=110,15=5/2;
 3/5=16,6=1,7=10,11=9,25=1,30=1,71=2,140=1/1,2,3;
 4/5=5,16=3,69=1/1;
 5/5=2,38=5,98=1/2;
 8/6=4,10=90,11=11/1;
 11/6=1,8=1,9=11,15=111,16=1/1,2,10;
 10/6=1/2;
 7/10=1,25=1/1,2,3,16;
 1/7=1,10=4,18=20,19=15/3(-8);
 2/9=110,15=5/2;
 6/7=2,8=2,9=2,10=2,15=8,18=1,19=2,20=101,28=1,33=2,42=6,79=1/1,2;
 7/8=1,9=1,25=1,44=-1/16;
 99//99;
 Leave Link    1 at Sun Sep 28 21:01:56 2025, MaxMem=  1572864000 cpu:               0.5 elap:               0.1
 (Enter /software/sse/easybuild/prefix/software/Gaussian/16.C.01-avx2-nsc1/g16/l101.exe)
 -------
 formate
 -------
 Symbolic Z-matrix:
 Charge = -1 Multiplicity = 1
 O                    -1.15891  -0.18124   0. 
 O                     1.15898  -0.18122   0. 
 C                    -0.00009   0.3578    0. 
 H                    -0.00004   1.49233   0. 
 
 ITRead=  0  0  0  0
 MicOpt= -1 -1 -1 -1
 NAtoms=      4 NQM=        4 NQMF=       0 NMMI=      0 NMMIF=      0
                NMic=       0 NMicF=      0.
                    Isotopes and Nuclear Properties:
 (Nuclear quadrupole moments (NQMom) in fm**2, nuclear magnetic moments (NMagM)
  in nuclear magnetons)

  Atom         1           2           3           4
 IAtWgt=          16          16          12           1
 AtmWgt=  15.9949146  15.9949146  12.0000000   1.0078250
 NucSpn=           0           0           0           1
 AtZEff=  -0.0000000  -0.0000000  -0.0000000  -0.0000000
 NQMom=    0.0000000   0.0000000   0.0000000   0.0000000
 NMagM=    0.0000000   0.0000000   0.0000000   2.7928460
 AtZNuc=   8.0000000   8.0000000   6.0000000   1.0000000
 Leave Link  101 at Sun Sep 28 21:01:56 2025, MaxMem=  1572864000 cpu:               1.9 elap:               0.3
 (Enter /software/sse/easybuild/prefix/software/Gaussian/16.C.01-avx2-nsc1/g16/l103.exe)

 GradGradGradGradGradGradGradGradGradGradGradGradGradGradGradGradGradGrad
 Berny optimization.
 Initialization pass.
                           ----------------------------
                           !    Initial Parameters    !
                           ! (Angstroms and Degrees)  !
 --------------------------                            --------------------------
 ! Name  Definition              Value          Derivative Info.                !
 --------------------------------------------------------------------------------
 ! R1    R(1,3)                  1.2781         calculate D2E/DX2 analytically  !
 ! R2    R(2,3)                  1.2783         calculate D2E/DX2 analytically  !
 ! R3    R(3,4)                  1.1345         calculate D2E/DX2 analytically  !
 ! A1    A(1,3,2)              130.1126         calculate D2E/DX2 analytically  !
 ! A2    A(1,3,4)              114.9491         calculate D2E/DX2 analytically  !
 ! A3    A(2,3,4)              114.9383         calculate D2E/DX2 analytically  !
 ! D1    D(1,3,4,2)            180.0            calculate D2E/DX2 analytically  !
 --------------------------------------------------------------------------------
 Trust Radius=3.00D-01 FncErr=1.00D-07 GrdErr=1.00D-07 EigMax=2.50D+02 EigMin=1.00D-04
 Number of steps in this run=     20 maximum allowed number of steps=    100.
 GradGradGradGradGradGradGradGradGradGradGradGradGradGradGradGradGradGrad

 Leave Link  103 at Sun Sep 28 21:01:56 2025, MaxMem=  1572864000 cpu:               0.2 elap:               0.0
 (Enter /software/sse/easybuild/prefix/software/Gaussian/16.C.01-avx2-nsc1/g16/l202.exe)
                          Input orientation:                          
 ---------------------------------------------------------------------
 Center     Atomic      Atomic             Coordinates (Angstroms)
 Number     Number       Type             X           Y           Z
 ---------------------------------------------------------------------
      1          8           0       -1.158907   -0.181245    0.000000
      2          8           0        1.158977   -0.181223    0.000000
      3          6           0       -0.000091    0.357803    0.000000
      4          1           0       -0.000040    1.492328    0.000000
 ---------------------------------------------------------------------
                    Distance matrix (angstroms):
                    1          2          3          4
     1  O    0.000000
     2  O    2.317884   0.000000
     3  C    1.278056   1.278276   0.000000
     4  H    2.035638   2.035705   1.134525   0.000000
 Stoichiometry    CHO2(1-)
 Framework group  CS[SG(CHO2)]
 Deg. of freedom     5
 Full point group                 CS      NOp   2
 Largest Abelian subgroup         CS      NOp   2
 Largest concise Abelian subgroup C1      NOp   1
                         Standard orientation:                         
 ---------------------------------------------------------------------
 Center     Atomic      Atomic             Coordinates (Angstroms)
 Number     Number       Type             X           Y           Z
 ---------------------------------------------------------------------
      1          8           0        1.158965   -0.213073    0.000000
      2          8           0       -1.158919   -0.213691    0.000000
      3          6           0       -0.000000    0.325655    0.000000
      4          1           0       -0.000364    1.460180    0.000000
 ---------------------------------------------------------------------
 Rotational constants (GHZ):         104.6012958          11.7620143          10.5731088
 Leave Link  202 at Sun Sep 28 21:01:56 2025, MaxMem=  1572864000 cpu:               0.1 elap:               0.0
 (Enter /software/sse/easybuild/prefix/software/Gaussian/16.C.01-avx2-nsc1/g16/l301.exe)
 Standard basis: Aug-CC-pVTZ (5D, 7F)
 Ernie: Thresh=  0.10000D-02 Tol=  0.10000D-05 Strict=F.
 Ernie:  9 primitive shells out of 101 were deleted.
 There are   129 symmetry adapted cartesian basis functions of A'  symmetry.
 There are    61 symmetry adapted cartesian basis functions of A"  symmetry.
 There are   106 symmetry adapted basis functions of A'  symmetry.
 There are    55 symmetry adapted basis functions of A"  symmetry.
   161 basis functions,   243 primitive gaussians,   190 cartesian basis functions
    12 alpha electrons       12 beta electrons
       nuclear repulsion energy        61.3143730431 Hartrees.
 IExCor=    0 DFT=F Ex=HF Corr=None ExCW=0 ScaHFX=  1.000000
 ScaDFX=  1.000000  1.000000  1.000000  1.000000 ScalE2=  1.000000  1.000000
 IRadAn=      5 IRanWt=     -1 IRanGd=            0 ICorTp=0 IEmpDi=  4
 NAtoms=    4 NActive=    4 NUniq=    4 SFac= 1.00D+00 NAtFMM=   60 NAOKFM=F Big=F
 Integral buffers will be    131072 words long.
 Raffenetti 1 integral format.
 Two-electron integral symmetry is turned on.
 Leave Link  301 at Sun Sep 28 21:01:56 2025, MaxMem=  1572864000 cpu:               0.5 elap:               0.1
 (Enter /software/sse/easybuild/prefix/software/Gaussian/16.C.01-avx2-nsc1/g16/l302.exe)
 NPDir=0 NMtPBC=     1 NCelOv=     1 NCel=       1 NClECP=     1 NCelD=      1
         NCelK=      1 NCelE2=     1 NClLst=     1 CellRange=     0.0.
 One-electron integrals computed using PRISM.
 One-electron integral symmetry used in STVInt
 NBasis=   161 RedAO= T EigKep=  1.03D-04  NBF=   106    55
 NBsUse=   161 1.00D-06 EigRej= -1.00D+00 NBFU=   106    55
 Leave Link  302 at Sun Sep 28 21:01:56 2025, MaxMem=  1572864000 cpu:               0.9 elap:               0.1
 (Enter /software/sse/easybuild/prefix/software/Gaussian/16.C.01-avx2-nsc1/g16/l303.exe)
 DipDrv:  MaxL=1.
 Leave Link  303 at Sun Sep 28 21:01:56 2025, MaxMem=  1572864000 cpu:               0.3 elap:               0.1
 (Enter /software/sse/easybuild/prefix/software/Gaussian/16.C.01-avx2-nsc1/g16/l401.exe)
 ExpMin= 2.53D-02 ExpMax= 1.53D+04 ExpMxC= 5.22D+02 IAcc=3 IRadAn=         5 AccDes= 0.00D+00
 Harris functional with IExCor=  205 and IRadAn=       5 diagonalized for initial guess.
 HarFok:  IExCor=  205 AccDes= 0.00D+00 IRadAn=         5 IDoV= 1 UseB2=F ITyADJ=14
 ICtDFT=  3500011 ScaDFX=  1.000000  1.000000  1.000000  1.000000
 FoFCou: FMM=F IPFlag=           0 FMFlag=      100000 FMFlg1=           0
         NFxFlg=           0 DoJE=T BraDBF=F KetDBF=T FulRan=T
         wScrn=  0.000000 ICntrl=       500 IOpCl=  0 I1Cent=   200000004 NGrid=           0
         NMat0=    1 NMatS0=      1 NMatT0=    0 NMatD0=    1 NMtDS0=    0 NMtDT0=    0
 Petite list used in FoFCou.
 Harris En= -188.570091926299    
 JPrj=0 DoOrth=F DoCkMO=F.
 Initial guess orbital symmetries:
       Occupied  (A') (A') (A') (A') (A') (A') (A') (A') (A") (A")
                 (A') (A')
       Virtual   (A") (A') (A') (A') (A") (A') (A') (A') (A') (A")
                 (A") (A') (A') (A') (A") (A') (A') (A') (A") (A')
                 (A') (A") (A') (A') (A") (A') (A') (A') (A') (A")
                 (A') (A') (A") (A") (A') (A") (A") (A') (A') (A')
                 (A') (A') (A") (A") (A') (A") (A') (A') (A') (A")
                 (A') (A') (A") (A') (A') (A") (A") (A') (A') (A")
                 (A') (A') (A') (A") (A') (A') (A') (A") (A') (A")
                 (A") (A") (A') (A') (A") (A') (A') (A') (A") (A')
                 (A') (A") (A') (A") (A') (A') (A') (A") (A") (A')
                 (A') (A') (A") (A") (A') (A') (A') (A") (A") (A')
                 (A") (A') (A") (A') (A') (A') (A') (A") (A') (A')
                 (A") (A') (A") (A") (A') (A') (A") (A') (A') (A')
                 (A') (A') (A") (A') (A') (A") (A') (A") (A") (A')
                 (A') (A") (A") (A") (A') (A') (A") (A') (A") (A')
                 (A") (A') (A') (A') (A') (A') (A') (A') (A')
 The electronic state of the initial guess is 1-A'.
 Leave Link  401 at Sun Sep 28 21:01:57 2025, MaxMem=  1572864000 cpu:               1.6 elap:               0.2
 (Enter /software/sse/easybuild/prefix/software/Gaussian/16.C.01-avx2-nsc1/g16/l502.exe)
 Keep R1 ints in memory in symmetry-blocked form, NReq=128070221.
 FoFCou: FMM=F IPFlag=           0 FMFlag=           0 FMFlg1=           0
         NFxFlg=           0 DoJE=F BraDBF=F KetDBF=F FulRan=T
         wScrn=  0.000000 ICntrl=       600 IOpCl=  0 I1Cent=           0 NGrid=           0
         NMat0=    1 NMatS0=  13041 NMatT0=    0 NMatD0=    1 NMtDS0=    0 NMtDT0=    0
 Petite list used in FoFCou.
 Closed shell SCF:
 Using DIIS extrapolation, IDIIS=  1040.
 NGot=  1572864000 LenX=  1529759742 LenY=  1529723201
 Requested convergence on RMS density matrix=1.00D-08 within 128 cycles.
 Requested convergence on MAX density matrix=1.00D-06.
 Requested convergence on             energy=1.00D-06.
 No special actions if energy rises.

 Cycle   1  Pass 1  IDiag  1:
 E= -188.090326509280    
 DIIS: error= 5.80D-02 at cycle   1 NSaved=   1.
 NSaved= 1 IEnMin= 1 EnMin= -188.090326509280     IErMin= 1 ErrMin= 5.80D-02
 ErrMax= 5.80D-02  0.00D+00 EMaxC= 1.00D-01 BMatC= 4.12D-01 BMatP= 4.12D-01
 IDIUse=3 WtCom= 4.20D-01 WtEn= 5.80D-01
 Coeff-Com:  0.100D+01
 Coeff-En:   0.100D+01
 Coeff:      0.100D+01
 Gap=     0.258 Goal=   None    Shift=    0.000
 GapD=    0.258 DampG=1.000 DampE=0.500 DampFc=0.5000 IDamp=-1.
 Damping current iteration by 5.00D-01
 RMSDP=2.27D-03 MaxDP=4.52D-02              OVMax= 1.50D-01

 Cycle   2  Pass 1  IDiag  1:
 E= -188.183486337975     Delta-E=       -0.093159828695 Rises=F Damp=T
 DIIS: error= 2.02D-02 at cycle   2 NSaved=   2.
 NSaved= 2 IEnMin= 2 EnMin= -188.183486337975     IErMin= 2 ErrMin= 2.02D-02
 ErrMax= 2.02D-02  0.00D+00 EMaxC= 1.00D-01 BMatC= 7.20D-02 BMatP= 4.12D-01
 IDIUse=3 WtCom= 7.98D-01 WtEn= 2.02D-01
 Coeff-Com: -0.428D+00 0.143D+01
 Coeff-En:   0.000D+00 0.100D+01
 Coeff:     -0.341D+00 0.134D+01
 Gap=     0.339 Goal=   None    Shift=    0.000
 RMSDP=7.92D-04 MaxDP=2.64D-02 DE=-9.32D-02 OVMax= 6.75D-02

 Cycle   3  Pass 1  IDiag  1:
 E= -188.266557030715     Delta-E=       -0.083070692739 Rises=F Damp=F
 DIIS: error= 6.50D-03 at cycle   3 NSaved=   3.
 NSaved= 3 IEnMin= 3 EnMin= -188.266557030715     IErMin= 3 ErrMin= 6.50D-03
 ErrMax= 6.50D-03  0.00D+00 EMaxC= 1.00D-01 BMatC= 3.42D-03 BMatP= 7.20D-02
 IDIUse=3 WtCom= 9.35D-01 WtEn= 6.50D-02
 Coeff-Com: -0.142D+00 0.238D+00 0.904D+00
 Coeff-En:   0.000D+00 0.000D+00 0.100D+01
 Coeff:     -0.132D+00 0.222D+00 0.910D+00
 Gap=     0.332 Goal=   None    Shift=    0.000
 RMSDP=1.82D-04 MaxDP=6.92D-03 DE=-8.31D-02 OVMax= 1.02D-02

 Cycle   4  Pass 1  IDiag  1:
 E= -188.268687224981     Delta-E=       -0.002130194266 Rises=F Damp=F
 DIIS: error= 1.40D-03 at cycle   4 NSaved=   4.
 NSaved= 4 IEnMin= 4 EnMin= -188.268687224981     IErMin= 4 ErrMin= 1.40D-03
 ErrMax= 1.40D-03  0.00D+00 EMaxC= 1.00D-01 BMatC= 1.20D-04 BMatP= 3.42D-03
 IDIUse=3 WtCom= 9.86D-01 WtEn= 1.40D-02
 Coeff-Com: -0.213D-01 0.267D-01 0.206D+00 0.788D+00
 Coeff-En:   0.000D+00 0.000D+00 0.000D+00 0.100D+01
 Coeff:     -0.210D-01 0.263D-01 0.203D+00 0.791D+00
 Gap=     0.329 Goal=   None    Shift=    0.000
 RMSDP=4.20D-05 MaxDP=1.14D-03 DE=-2.13D-03 OVMax= 4.87D-03

 Cycle   5  Pass 1  IDiag  1:
 E= -188.268820084987     Delta-E=       -0.000132860006 Rises=F Damp=F
 DIIS: error= 5.65D-04 at cycle   5 NSaved=   5.
 NSaved= 5 IEnMin= 5 EnMin= -188.268820084987     IErMin= 5 ErrMin= 5.65D-04
 ErrMax= 5.65D-04  0.00D+00 EMaxC= 1.00D-01 BMatC= 1.15D-05 BMatP= 1.20D-04
 IDIUse=3 WtCom= 9.94D-01 WtEn= 5.65D-03
 Coeff-Com:  0.140D-01-0.217D-01-0.120D+00-0.697D-01 0.120D+01
 Coeff-En:   0.000D+00 0.000D+00 0.000D+00 0.000D+00 0.100D+01
 Coeff:      0.139D-01-0.216D-01-0.120D+00-0.693D-01 0.120D+01
 Gap=     0.330 Goal=   None    Shift=    0.000
 RMSDP=2.42D-05 MaxDP=6.77D-04 DE=-1.33D-04 OVMax= 1.58D-03

 Cycle   6  Pass 1  IDiag  1:
 E= -188.268839980774     Delta-E=       -0.000019895787 Rises=F Damp=F
 DIIS: error= 1.03D-04 at cycle   6 NSaved=   6.
 NSaved= 6 IEnMin= 6 EnMin= -188.268839980774     IErMin= 6 ErrMin= 1.03D-04
 ErrMax= 1.03D-04  0.00D+00 EMaxC= 1.00D-01 BMatC= 5.58D-07 BMatP= 1.15D-05
 IDIUse=3 WtCom= 9.99D-01 WtEn= 1.03D-03
 Coeff-Com: -0.182D-02 0.333D-02 0.113D-01-0.151D-01-0.302D+00 0.130D+01
 Coeff-En:   0.000D+00 0.000D+00 0.000D+00 0.000D+00 0.000D+00 0.100D+01
 Coeff:     -0.182D-02 0.333D-02 0.113D-01-0.151D-01-0.302D+00 0.130D+01
 Gap=     0.330 Goal=   None    Shift=    0.000
 RMSDP=6.55D-06 MaxDP=1.48D-04 DE=-1.99D-05 OVMax= 5.57D-04

 Cycle   7  Pass 1  IDiag  1:
 E= -188.268841465456     Delta-E=       -0.000001484682 Rises=F Damp=F
 DIIS: error= 1.65D-05 at cycle   7 NSaved=   7.
 NSaved= 7 IEnMin= 7 EnMin= -188.268841465456     IErMin= 7 ErrMin= 1.65D-05
 ErrMax= 1.65D-05  0.00D+00 EMaxC= 1.00D-01 BMatC= 2.71D-08 BMatP= 5.58D-07
 IDIUse=1 WtCom= 1.00D+00 WtEn= 0.00D+00
 Coeff-Com: -0.669D-03 0.102D-02 0.540D-02 0.667D-02-0.141D-01-0.250D+00
 Coeff-Com:  0.125D+01
 Coeff:     -0.669D-03 0.102D-02 0.540D-02 0.667D-02-0.141D-01-0.250D+00
 Coeff:      0.125D+01
 Gap=     0.330 Goal=   None    Shift=    0.000
 RMSDP=1.48D-06 MaxDP=3.46D-05 DE=-1.48D-06 OVMax= 1.28D-04

 Cycle   8  Pass 1  IDiag  1:
 E= -188.268841539194     Delta-E=       -0.000000073739 Rises=F Damp=F
 DIIS: error= 3.73D-06 at cycle   8 NSaved=   8.
 NSaved= 8 IEnMin= 8 EnMin= -188.268841539194     IErMin= 8 ErrMin= 3.73D-06
 ErrMax= 3.73D-06  0.00D+00 EMaxC= 1.00D-01 BMatC= 1.76D-09 BMatP= 2.71D-08
 IDIUse=1 WtCom= 1.00D+00 WtEn= 0.00D+00
 Coeff-Com:  0.122D-03-0.206D-03-0.105D-02 0.480D-03 0.178D-01-0.635D-01
 Coeff-Com: -0.345D-01 0.108D+01
 Coeff:      0.122D-03-0.206D-03-0.105D-02 0.480D-03 0.178D-01-0.635D-01
 Coeff:     -0.345D-01 0.108D+01
 Gap=     0.330 Goal=   None    Shift=    0.000
 RMSDP=3.03D-07 MaxDP=8.39D-06 DE=-7.37D-08 OVMax= 2.78D-05

 Cycle   9  Pass 1  IDiag  1:
 E= -188.268841543024     Delta-E=       -0.000000003830 Rises=F Damp=F
 DIIS: error= 1.65D-06 at cycle   9 NSaved=   9.
 NSaved= 9 IEnMin= 9 EnMin= -188.268841543024     IErMin= 9 ErrMin= 1.65D-06
 ErrMax= 1.65D-06  0.00D+00 EMaxC= 1.00D-01 BMatC= 4.70D-10 BMatP= 1.76D-09
 IDIUse=1 WtCom= 1.00D+00 WtEn= 0.00D+00
 Coeff-Com:  0.125D-03-0.198D-03-0.104D-02-0.388D-03 0.865D-02 0.151D-02
 Coeff-Com: -0.142D+00 0.369D+00 0.764D+00
 Coeff:      0.125D-03-0.198D-03-0.104D-02-0.388D-03 0.865D-02 0.151D-02
 Coeff:     -0.142D+00 0.369D+00 0.764D+00
 Gap=     0.330 Goal=   None    Shift=    0.000
 RMSDP=1.03D-07 MaxDP=3.22D-06 DE=-3.83D-09 OVMax= 8.56D-06

 Cycle  10  Pass 1  IDiag  1:
 E= -188.268841543641     Delta-E=       -0.000000000617 Rises=F Damp=F
 DIIS: error= 6.58D-07 at cycle  10 NSaved=  10.
 NSaved=10 IEnMin=10 EnMin= -188.268841543641     IErMin=10 ErrMin= 6.58D-07
 ErrMax= 6.58D-07  0.00D+00 EMaxC= 1.00D-01 BMatC= 5.07D-11 BMatP= 4.70D-10
 IDIUse=1 WtCom= 1.00D+00 WtEn= 0.00D+00
 Coeff-Com:  0.589D-06 0.185D-05 0.345D-05-0.396D-04-0.203D-02 0.125D-01
 Coeff-Com: -0.128D-01-0.178D+00 0.864D-01 0.109D+01
 Coeff:      0.589D-06 0.185D-05 0.345D-05-0.396D-04-0.203D-02 0.125D-01
 Coeff:     -0.128D-01-0.178D+00 0.864D-01 0.109D+01
 Gap=     0.330 Goal=   None    Shift=    0.000
 RMSDP=6.58D-08 MaxDP=1.50D-06 DE=-6.17D-10 OVMax= 5.39D-06

 Cycle  11  Pass 1  IDiag  1:
 E= -188.268841543758     Delta-E=       -0.000000000117 Rises=F Damp=F
 DIIS: error= 1.39D-07 at cycle  11 NSaved=  11.
 NSaved=11 IEnMin=11 EnMin= -188.268841543758     IErMin=11 ErrMin= 1.39D-07
 ErrMax= 1.39D-07  0.00D+00 EMaxC= 1.00D-01 BMatC= 1.94D-12 BMatP= 5.07D-11
 IDIUse=1 WtCom= 1.00D+00 WtEn= 0.00D+00
 Coeff-Com: -0.765D-05 0.117D-04 0.593D-04 0.557D-04 0.600D-05-0.377D-02
 Coeff-Com:  0.130D-01 0.238D-01-0.727D-01-0.286D+00 0.133D+01
 Coeff:     -0.765D-05 0.117D-04 0.593D-04 0.557D-04 0.600D-05-0.377D-02
 Coeff:      0.130D-01 0.238D-01-0.727D-01-0.286D+00 0.133D+01
 Gap=     0.330 Goal=   None    Shift=    0.000
 RMSDP=2.40D-08 MaxDP=4.92D-07 DE=-1.17D-10 OVMax= 1.36D-06

 Cycle  12  Pass 1  IDiag  1:
 E= -188.268841543764     Delta-E=       -0.000000000006 Rises=F Damp=F
 DIIS: error= 3.10D-08 at cycle  12 NSaved=  12.
 NSaved=12 IEnMin=12 EnMin= -188.268841543764     IErMin=12 ErrMin= 3.10D-08
 ErrMax= 3.10D-08  0.00D+00 EMaxC= 1.00D-01 BMatC= 7.12D-14 BMatP= 1.94D-12
 IDIUse=1 WtCom= 1.00D+00 WtEn= 0.00D+00
 Coeff-Com:  0.194D-05-0.313D-05-0.153D-04-0.121D-04 0.602D-04 0.611D-03
 Coeff-Com: -0.319D-02 0.126D-02 0.157D-01 0.283D-01-0.361D+00 0.132D+01
 Coeff:      0.194D-05-0.313D-05-0.153D-04-0.121D-04 0.602D-04 0.611D-03
 Coeff:     -0.319D-02 0.126D-02 0.157D-01 0.283D-01-0.361D+00 0.132D+01
 Gap=     0.330 Goal=   None    Shift=    0.000
 RMSDP=4.09D-09 MaxDP=8.57D-08 DE=-6.17D-12 OVMax= 2.61D-07

 SCF Done:  E(RHF) =  -188.268841544     A.U. after   12 cycles
            NFock= 12  Conv=0.41D-08     -V/T= 2.0025
 KE= 1.877958583154D+02 PE=-5.745558279218D+02 EE= 1.371767550196D+02
 Leave Link  502 at Sun Sep 28 21:01:59 2025, MaxMem=  1572864000 cpu:              16.7 elap:               2.5
 (Enter /software/sse/easybuild/prefix/software/Gaussian/16.C.01-avx2-nsc1/g16/l801.exe)
 Range of M.O.s used for correlation:     1   161
 NBasis=   161 NAE=    12 NBE=    12 NFC=     0 NFV=     0
 NROrb=    161 NOA=    12 NOB=    12 NVA=   149 NVB=   149

 **** Warning!!: The largest alpha MO coefficient is  0.29460503D+02

 Leave Link  801 at Sun Sep 28 21:01:59 2025, MaxMem=  1572864000 cpu:               0.2 elap:               0.1
 (Enter /software/sse/easybuild/prefix/software/Gaussian/16.C.01-avx2-nsc1/g16/l1101.exe)
 Using compressed storage, NAtomX=     4.
 Will process      5 centers per pass.
 Leave Link 1101 at Sun Sep 28 21:01:59 2025, MaxMem=  1572864000 cpu:               1.0 elap:               0.2
 (Enter /software/sse/easybuild/prefix/software/Gaussian/16.C.01-avx2-nsc1/g16/l1102.exe)
 Symmetrizing basis deriv contribution to polar:
 IMax=3 JMax=2 DiffMx= 0.00D+00
 Leave Link 1102 at Sun Sep 28 21:02:00 2025, MaxMem=  1572864000 cpu:               0.3 elap:               0.1
 (Enter /software/sse/easybuild/prefix/software/Gaussian/16.C.01-avx2-nsc1/g16/l1110.exe)
 Forming Gx(P) for the SCF density, NAtomX=     4.
 Integral derivatives from FoFJK, PRISM(SPDF).
 Do as many integral derivatives as possible in FoFJK.
 G2DrvN: MDV=    1572863460.
 G2DrvN: will do     5 centers at a time, making    1 passes.
 Calling FoFCou, ICntrl=  3107 FMM=F I1Cent=   0 AccDes= 0.00D+00.
 FoFJK:  IHMeth= 1 ICntrl=    3107 DoSepK=F KAlg= 0 I1Cent=           0 FoldK=F
 IRaf=         0 NMat=       1 IRICut=       1 DoRegI=T DoRafI=F ISym2E= 1 IDoP0=0 IntGTp=1.
 FoFCou: FMM=F IPFlag=           0 FMFlag=      100000 FMFlg1=           0
         NFxFlg=           0 DoJE=F BraDBF=F KetDBF=F FulRan=T
         wScrn=  0.000000 ICntrl=      3107 IOpCl=  0 I1Cent=           0 NGrid=           0
         NMat0=    1 NMatS0=      1 NMatT0=    0 NMatD0=    1 NMtDS0=    0 NMtDT0=    0
 Petite list used in FoFCou.
 End of G2Drv F.D. properties file   721 does not exist.
 End of G2Drv F.D. properties file   722 does not exist.
 End of G2Drv F.D. properties file   788 does not exist.
 Leave Link 1110 at Sun Sep 28 21:02:03 2025, MaxMem=  1572864000 cpu:              28.3 elap:               3.6
 (Enter /software/sse/easybuild/prefix/software/Gaussian/16.C.01-avx2-nsc1/g16/l1002.exe)
 Minotr:  Closed shell wavefunction.
          IDoAtm=1111
          Direct CPHF calculation.
          Differentiating once with respect to electric field.
                with respect to dipole field.
          Differentiating once with respect to nuclear coordinates.
          Using symmetry in CPHF.
          Requested convergence is 1.0D-08 RMS, and 1.0D-07 maximum.
          Secondary convergence is 1.0D-12 RMS, and 1.0D-12 maximum.
          NewPWx=T KeepS1=F KeepF1=F KeepIn=T MapXYZ=F SortEE=F KeepMc=T.
 Keep R1 ints in memory in symmetry-blocked form, NReq=128071248.
 FoFCou: FMM=F IPFlag=           0 FMFlag=           0 FMFlg1=           0
         NFxFlg=           0 DoJE=F BraDBF=F KetDBF=F FulRan=T
         wScrn=  0.000000 ICntrl=       600 IOpCl=  0 I1Cent=           0 NGrid=           0
         NMat0=    1 NMatS0=  13041 NMatT0=    0 NMatD0=    1 NMtDS0=    0 NMtDT0=    0
 Petite list used in FoFCou.
          MDV=    1572864000 using IRadAn=       1.
          Solving linear equations simultaneously, MaxMat=       0.
          There are    15 degrees of freedom in the 1st order CPHF.  IDoFFX=6 NUNeed=     3.
     12 vectors produced by pass  0 Test12= 1.19D-14 6.67D-09 XBig12= 9.26D+00 1.45D+00.
 AX will form    12 AO Fock derivatives at one time.
     12 vectors produced by pass  1 Test12= 1.19D-14 6.67D-09 XBig12= 1.22D+00 2.87D-01.
     12 vectors produced by pass  2 Test12= 1.19D-14 6.67D-09 XBig12= 3.47D-02 3.79D-02.
     12 vectors produced by pass  3 Test12= 1.19D-14 6.67D-09 XBig12= 9.09D-04 6.86D-03.
     12 vectors produced by pass  4 Test12= 1.19D-14 6.67D-09 XBig12= 1.63D-05 9.87D-04.
     12 vectors produced by pass  5 Test12= 1.19D-14 6.67D-09 XBig12= 2.51D-07 1.61D-04.
     12 vectors produced by pass  6 Test12= 1.19D-14 6.67D-09 XBig12= 2.31D-09 1.59D-05.
     11 vectors produced by pass  7 Test12= 1.19D-14 6.67D-09 XBig12= 2.32D-11 1.10D-06.
      4 vectors produced by pass  8 Test12= 1.19D-14 6.67D-09 XBig12= 2.03D-13 9.92D-08.
      1 vectors produced by pass  9 Test12= 1.19D-14 6.67D-09 XBig12= 1.95D-15 1.09D-08.
 InvSVY:  IOpt=1 It=  1 EMax= 1.22D-15
 Solved reduced A of dimension   100 with    12 vectors.
 FullF1:  Do perturbations      1 to       3.
 Isotropic polarizability for W=    0.000000       27.44 Bohr**3.
 End of Minotr F.D. properties file   721 does not exist.
 End of Minotr F.D. properties file   722 does not exist.
 End of Minotr F.D. properties file   788 does not exist.
 Leave Link 1002 at Sun Sep 28 21:02:06 2025, MaxMem=  1572864000 cpu:              21.2 elap:               2.7
 (Enter /software/sse/easybuild/prefix/software/Gaussian/16.C.01-avx2-nsc1/g16/l601.exe)
 Copying SCF densities to generalized density rwf, IOpCl= 0 IROHF=0.
 SCF density gives NOpUse=  2 NOpAll=  2.

 **********************************************************************

            Population analysis using the SCF Density.

 **********************************************************************

 Orbital symmetries:
 BldTbl:  Degeneracy threshold= 1.00D-02
       Occupied  (A') (A') (A') (A') (A') (A') (A') (A') (A") (A')
                 (A') (A")
       Virtual   (A') (A') (A") (A') (A') (A') (A') (A") (A") (A')
                 (A') (A') (A") (A') (A") (A') (A') (A') (A') (A")
                 (A") (A') (A') (A") (A') (A') (A') (A') (A') (A")
                 (A') (A') (A') (A") (A") (A") (A') (A') (A") (A')
                 (A') (A") (A') (A') (A") (A') (A") (A') (A') (A")
                 (A') (A") (A') (A') (A') (A") (A") (A') (A') (A")
                 (A') (A') (A') (A") (A') (A') (A") (A') (A') (A")
                 (A") (A") (A') (A') (A") (A') (A') (A') (A') (A")
                 (A') (A") (A") (A') (A') (A') (A') (A") (A") (A')
                 (A') (A') (A") (A") (A') (A') (A") (A') (A") (A')
                 (A') (A') (A") (A") (A') (A') (A') (A") (A') (A')
                 (A") (A') (A') (A") (A") (A") (A') (A') (A') (A')
                 (A') (A') (A") (A') (A') (A") (A') (A") (A") (A')
                 (A') (A") (A") (A") (A') (A') (A") (A') (A') (A")
                 (A") (A') (A') (A') (A') (A') (A') (A') (A')
 The electronic state is 1-A'.
 Alpha  occ. eigenvalues --  -20.29351 -20.29345 -11.13454  -1.14311  -1.05196
 Alpha  occ. eigenvalues --   -0.55920  -0.42384  -0.38244  -0.33297  -0.20964
 Alpha  occ. eigenvalues --   -0.19224  -0.18634
 Alpha virt. eigenvalues --    0.14344   0.21300   0.21440   0.21719   0.27979
 Alpha virt. eigenvalues --    0.31820   0.32766   0.33953   0.36188   0.36968
 Alpha virt. eigenvalues --    0.39219   0.41678   0.41840   0.45586   0.48574
 Alpha virt. eigenvalues --    0.49881   0.51503   0.54182   0.57832   0.59093
 Alpha virt. eigenvalues --    0.61762   0.69532   0.70029   0.72336   0.77312
 Alpha virt. eigenvalues --    0.81859   0.85059   0.91235   0.92654   0.96453
 Alpha virt. eigenvalues --    1.00653   1.00819   1.05304   1.05442   1.05949
 Alpha virt. eigenvalues --    1.09572   1.11535   1.12062   1.12601   1.15637
 Alpha virt. eigenvalues --    1.21299   1.21347   1.22081   1.24705   1.26020
 Alpha virt. eigenvalues --    1.27224   1.31980   1.38365   1.42522   1.43805
 Alpha virt. eigenvalues --    1.45237   1.55858   1.57496   1.63196   1.65199
 Alpha virt. eigenvalues --    1.70911   1.76062   1.77069   1.80805   1.86150
 Alpha virt. eigenvalues --    1.91917   1.99370   2.06808   2.12380   2.21692
 Alpha virt. eigenvalues --    2.21772   2.40674   2.40735   2.44443   2.49636
 Alpha virt. eigenvalues --    2.57359   2.60913   2.63287   2.63820   2.63990
 Alpha virt. eigenvalues --    2.69287   2.70999   2.72777   2.79726   2.80244
 Alpha virt. eigenvalues --    2.84568   2.87780   2.88375   2.89579   2.99615
 Alpha virt. eigenvalues --    3.07982   3.11654   3.14915   3.15608   3.28642
 Alpha virt. eigenvalues --    3.29044   3.40011   3.43872   3.55099   3.62136
 Alpha virt. eigenvalues --    3.77410   3.79622   3.79840   4.02047   4.08682
 Alpha virt. eigenvalues --    4.18081   4.24513   4.25954   4.27644   4.28981
 Alpha virt. eigenvalues --    4.43395   4.50766   4.52394   4.69715   4.77378
 Alpha virt. eigenvalues --    4.85530   5.15778   5.18543   5.22183   5.22899
 Alpha virt. eigenvalues --    5.34723   5.40397   5.42493   5.76511   6.05923
 Alpha virt. eigenvalues --    6.52661   6.55237   6.84174   6.85489   6.86569
 Alpha virt. eigenvalues --    6.87067   7.05416   7.08224   7.10018   7.17816
 Alpha virt. eigenvalues --    7.27081   7.27976   7.34723   7.42574   7.42739
 Alpha virt. eigenvalues --    7.47884   7.53162   7.53716   7.74168   7.77857
 Alpha virt. eigenvalues --    7.84455   7.86677   7.94956   7.98511   8.14245
 Alpha virt. eigenvalues --    8.15293  13.27857  14.77195  16.38432
          Condensed to atoms (all electrons):
               1          2          3          4
     1  O    8.420015  -0.102261   0.414173  -0.037905
     2  O   -0.102261   8.420337   0.414049  -0.037877
     3  C    0.414173   0.414049   4.863609   0.291370
     4  H   -0.037905  -0.037877   0.291370   0.412938
 Mulliken charges:
               1
     1  O   -0.694023
     2  O   -0.694249
     3  C    0.016799
     4  H    0.371473
 Sum of Mulliken charges =  -1.00000
 Mulliken charges with hydrogens summed into heavy atoms:
               1
     1  O   -0.694023
     2  O   -0.694249
     3  C    0.388272
 APT charges:
               1
     1  O   -1.142452
     2  O   -1.142509
     3  C    1.452305
     4  H   -0.167344
 Sum of APT charges =  -1.00000
 APT charges with hydrogens summed into heavy atoms:
               1
     1  O   -1.142452
     2  O   -1.142509
     3  C    1.284961
 DipInt: DoE/N= T F RetVal/Mat= T F Init=T NMatP=  1 IDeriv=0 Min/MaxMlt=  0  4
 Entering OneElI...
 OneElI was handed  1572769359 working-precision words.
 Multipole integrals L=0 to 4 MinM= 0 MaxM= 0.
 Requested accuracy = 0.1000D-12
 ShPair: Thresh= 1.00D-13 NBox=     0 BxSize= 0.00D+00 RnKept= 4.38D+00
         NSMCal=                 1326 NSMKep=                1325
 PrmmSu-InSpLW:  IPartL=    0 NPrtUS=    1 NPrtUL=    1 DoSpLW=F IThBeg=    0 IThEnd=    0 NThAct=    1.
 PrSmSu:  IncTry=   512 NBBP=           1325 NTPThr=   100 NPartT=    1 Incr=          13 LDynOK=F GPUOK=F.
 PrsmSu:  NPrtUS=   1 ThrOK=F IAlg=2 LenDen=           0 ISkipM=0 DoSpLW=F IThBeg=    0 IThEnd=    0.
 Prism:   IPart=     0 DynPar=F LinDyn=F Incr=          13.
 PRISM was handed  1572654935 working-precision words and  1325 shell-pairs
 IPart=  0 NShTot=        1325 NBatch=          50 AvBLen=        26.5
 PrsmSu-ThDecC:  IPartSL=    0    0 NPrtUSL=    1    1 IThBeg=    0 IThEnd=    0 CPU=   -1 GPU=   -1 NThAct=    1.
 PrSmSu:  NxtVal=             14.
 Electronic moments (au):
        -24.00000000          0.00047627          0.76666793          0.00000000
        -99.10840123        -27.41360685        -14.14096063         -0.02043294
         -0.00000000          0.00000000         -0.00358095        -22.25211104
          0.00000000          0.02426779         32.32529383          0.00000000
          0.00238362         -0.29461568          0.00000000         -0.00000000
       -747.50713983       -172.27573563        -53.20359349         -0.13635089
         -0.00000000         -0.03200031          0.00000000         -0.00000000
          0.00000000        -89.60418668        -68.20238741        -27.43210298
         -0.00000000         -0.00000000         -0.01228902
 Electronic spatial extent (au):  <R**2>=            140.6630
 DipInt: DoE/N= F T RetVal/Mat= T F Init=T NMatP=  1 IDeriv=0 Min/MaxMlt=  0  4
 Nuclear    moments (au):
         23.00000000         -0.00000000          0.00000000         -0.00000000
         76.74343981         12.48782259          0.00000000          0.01826358
          0.00000000         -0.00000000          0.00988840         21.35884692
         -0.00000000         -0.02160227        -30.94552690         -0.00000000
         -0.00000000          0.00000000         -0.00000000          0.00000000
        368.09721816         59.25599013          0.00000000          0.09403754
          0.00000000         -0.00451385         -0.00000000          0.00000000
         -0.00000000         12.47830437          0.00000000          0.00000000
         -0.00000000          0.00000000         -0.00000000
 Total      moments (au):
         -1.00000000          0.00047627          0.76666793         -0.00000000
        -22.36496142        -14.92578426        -14.14096063         -0.00216937
          0.00000000         -0.00000000          0.00630744         -0.89326413
          0.00000000          0.00266552          1.37976693          0.00000000
          0.00238362         -0.29461568          0.00000000          0.00000000
       -379.40992167       -113.01974550        -53.20359349         -0.04231336
         -0.00000000         -0.03651415         -0.00000000         -0.00000000
          0.00000000        -77.12588231        -68.20238741        -27.43210298
         -0.00000000         -0.00000000         -0.01228902
 Charge=             -1.0000 electrons
 Dipole moment (field-independent basis, Debye):
    X=              0.0012    Y=              1.9487    Z=             -0.0000  Tot=              1.9487
 Quadrupole moment (field-independent basis, Debye-Ang):
   XX=            -30.0816   YY=            -20.0757   ZZ=            -19.0201
   XY=             -0.0029   XZ=              0.0000   YZ=             -0.0000
 Traceless Quadrupole moment (field-independent basis, Debye-Ang):
   XX=             -7.0225   YY=              2.9834   ZZ=              4.0391
   XY=             -0.0029   XZ=              0.0000   YZ=             -0.0000
 Octapole moment (field-independent basis, Debye-Ang**2):
  XXX=              0.0045  YYY=             -0.6358  ZZZ=              0.0000  XYY=              0.0019
  XXY=              0.9821  XXZ=              0.0000  XZZ=              0.0017  YZZ=             -0.2097
  YYZ=              0.0000  XYZ=              0.0000
 Hexadecapole moment (field-independent basis, Debye-Ang**3):
 XXXX=           -142.9040 YYYY=            -42.5687 ZZZZ=            -20.0390 XXXY=             -0.0159
 XXXZ=             -0.0000 YYYX=             -0.0138 YYYZ=             -0.0000 ZZZX=             -0.0000
 ZZZY=              0.0000 XXYY=            -29.0493 XXZZ=            -25.6883 YYZZ=            -10.3322
 XXYZ=             -0.0000 YYXZ=             -0.0000 ZZXY=             -0.0046
 N-N= 6.131437304311D+01 E-N=-5.745558277379D+02  KE= 1.877958583154D+02
 Symmetry A'   KE= 1.801946892255D+02
 Symmetry A"   KE= 7.601169089869D+00
 SetAtRh:  ITypeU=  23 NETotI=      -1 ICharg=  0 NETot=      23.
 StAtR1:  I=    1 I1=    1 IA=  8 C=   8.0 OKShel=TTT
                                                  SSP
                                                  224
 StAtR1:  I=    2 I1=    2 IA=  8 C=   8.0 OKShel=TTT
                                                  SSP
                                                  224
 StAtR1:  I=    3 I1=    3 IA=  6 C=   6.0 OKShel=TTT
                                                  SSP
                                                  222
 StAtR1:  I=    4 I1=    4 IA=  1 C=   1.0 OKShel=T
                                                  S
                                                  1
          I=    1 IA=  8 I1=    1 NAtG=23 NE=   8.000 C=   8.000 Err=-3.68D-11
          I=    2 IA=  8 I1=    2 NAtG=23 NE=   8.000 C=   8.000 Err=-3.68D-11
          I=    3 IA=  6 I1=    3 NAtG=23 NE=   6.000 C=   6.000 Err= 1.75D-11
          I=    4 IA=  1 I1=    4 NAtG=20 NE=   1.000 C=   1.000 Err= 2.80D-12
 Pruned (  99, 590) grid will be used in numerical quadrature.
 IPart=  0 IRanGd=          0 ScrnBf=T ScrnGd=T RCrit=4.00D+00 DoMicB=T.
 CutRad = 1000.00    CtRdIn =    0.00    XCrit =  15.00   ICut = 0
 Pruned (  99, 590) grid will be used in numerical quadrature.
 IPart=  0 Atom number   1 atomic number  8 has       23718 grid points.
 IPart=  0 Atom   1 batch    1 overlaps    4 atoms,    50 shells and     4 DB shells.   NGrid=      2408
 Symmetry reduced    86 angular points to    86 for atom    1.
 Pruned (  99, 590) grid will be used in numerical quadrature.
 Pruned (  99, 590) grid will be used in numerical quadrature.
 Pruned (  99, 590) grid will be used in numerical quadrature.
 IPart=  5 IRanGd=          0 ScrnBf=T ScrnGd=T RCrit=4.00D+00 DoMicB=T.
 IPart=  4 IRanGd=          0 ScrnBf=T ScrnGd=T RCrit=4.00D+00 DoMicB=T.
 CutRad = 1000.00    CtRdIn =    0.00    XCrit =  15.00   ICut = 0
 CutRad = 1000.00    CtRdIn =    0.00    XCrit =  15.00   ICut = 0
 Pruned (  99, 590) grid will be used in numerical quadrature.
 IPart=  1 IRanGd=          0 ScrnBf=T ScrnGd=T RCrit=4.00D+00 DoMicB=T.
 CutRad = 1000.00    CtRdIn =    0.00    XCrit =  15.00   ICut = 0
 IPart=  2 IRanGd=          0 ScrnBf=T ScrnGd=T RCrit=4.00D+00 DoMicB=T.
 Pruned (  99, 590) grid will be used in numerical quadrature.
 CutRad = 1000.00    CtRdIn =    0.00    XCrit =  15.00   ICut = 0
 Pruned (  99, 590) grid will be used in numerical quadrature.
 IPart=  3 IRanGd=          0 ScrnBf=T ScrnGd=T RCrit=4.00D+00 DoMicB=T.
 IPart=  4 Atom number   1 atomic number  8 has       23718 grid points.
 Pruned (  99, 590) grid will be used in numerical quadrature.
 CutRad = 1000.00    CtRdIn =    0.00    XCrit =  15.00   ICut = 0
 IPart=  5 Atom number   1 atomic number  8 has       23718 grid points.
 Pruned (  99, 590) grid will be used in numerical quadrature.
 IPart=  4 Atom   1 batch    2 overlaps    4 atoms,    50 shells and     4 DB shells.   NGrid=      2522
 IPart=  5 Atom   1 batch    3 overlaps    4 atoms,    50 shells and     4 DB shells.   NGrid=      2114
 IPart=  3 Atom number   1 atomic number  8 has       23718 grid points.
 Pruned (  99, 590) grid will be used in numerical quadrature.
 Symmetry reduced   302 angular points to   302 for atom    1.
 Symmetry reduced   194 angular points to   194 for atom    1.
 IPart=  7 IRanGd=          0 ScrnBf=T ScrnGd=T RCrit=4.00D+00 DoMicB=T.
 IPart=  3 Atom   1 batch    4 overlaps    4 atoms,    50 shells and     4 DB shells.   NGrid=      1180
 CutRad = 1000.00    CtRdIn =    0.00    XCrit =  15.00   ICut = 0
 Pruned (  99, 590) grid will be used in numerical quadrature.
 Pruned (  99, 590) grid will be used in numerical quadrature.
 IPart=  1 Atom number   1 atomic number  8 has       23718 grid points.
 IPart=  2 Atom number   1 atomic number  8 has       23718 grid points.
 IPart=  1 Atom   1 batch    5 overlaps    4 atoms,    50 shells and     4 DB shells.   NGrid=      1180
 IPart=  2 Atom   1 batch    6 overlaps    4 atoms,    50 shells and     4 DB shells.   NGrid=      1180
 Symmetry reduced   590 angular points to   590 for atom    1.
 Symmetry reduced   590 angular points to   590 for atom    1.
 Symmetry reduced   590 angular points to   590 for atom    1.
 Pruned (  99, 590) grid will be used in numerical quadrature.
 IPart=  7 Atom number   1 atomic number  8 has       23718 grid points.
 IPart=  7 Atom   1 batch    7 overlaps    4 atoms,    50 shells and     4 DB shells.   NGrid=      1180
 Symmetry reduced   590 angular points to   590 for atom    1.
 IPart=  0 Atom   1 batch    8 overlaps    4 atoms,    50 shells and     4 DB shells.   NGrid=      1180
 Symmetry reduced   590 angular points to   590 for atom    1.
 Pruned (  99, 590) grid will be used in numerical quadrature.
 IPart=  6 IRanGd=          0 ScrnBf=T ScrnGd=T RCrit=4.00D+00 DoMicB=T.
 CutRad = 1000.00    CtRdIn =    0.00    XCrit =  15.00   ICut = 0
 Pruned (  99, 590) grid will be used in numerical quadrature.
 IPart=  6 Atom number   1 atomic number  8 has       23718 grid points.
 IPart=  6 Atom   1 batch    9 overlaps    4 atoms,    51 shells and     4 DB shells.   NGrid=      1180
 Symmetry reduced   590 angular points to   590 for atom    1.
 IPart=  0 Atom   1 batch   10 overlaps    4 atoms,    51 shells and     4 DB shells.   NGrid=      1180
 IPart=  2 Atom   1 batch   11 overlaps    4 atoms,    51 shells and     4 DB shells.   NGrid=      1180
 IPart=  7 Atom   1 batch   12 overlaps    4 atoms,    50 shells and     4 DB shells.   NGrid=       590
 IPart=  1 Atom   1 batch   13 overlaps    4 atoms,    50 shells and     4 DB shells.   NGrid=       604
 Symmetry reduced   302 angular points to   302 for atom    1.
 IPart=  3 Atom   1 batch   14 overlaps    4 atoms,    50 shells and     4 DB shells.   NGrid=       604
 Symmetry reduced   302 angular points to   302 for atom    1.
 IPart=  5 Atom   1 batch   15 overlaps    4 atoms,    47 shells and     4 DB shells.   NGrid=       604
 IPart=  7 Atom   1 batch   16 overlaps    4 atoms,    46 shells and     4 DB shells.   NGrid=       604
 Symmetry reduced   302 angular points to   302 for atom    1.
 IPart=  1 Atom   1 batch   17 overlaps    4 atoms,    44 shells and     4 DB shells.   NGrid=       604
 IPart=  3 Atom   1 batch   18 overlaps    4 atoms,    37 shells and     4 DB shells.   NGrid=       604
 IPart=  5 Atom   1 batch   19 overlaps    4 atoms,    29 shells and     4 DB shells.   NGrid=       604
 IPart=  6 Atom   1 batch   20 overlaps    4 atoms,    18 shells and     3 DB shells.   NGrid=       604
 Symmetry reduced   302 angular points to   302 for atom    1.
 IPart=  6 Atom   1 batch   21 overlaps    4 atoms,    12 shells and     2 DB shells.   NGrid=       604
 IPart=  5 Atom   1 batch   22 overlaps    4 atoms,     5 shells and     0 DB shells.   NGrid=       604
 Pruned (  99, 590) grid will be used in numerical quadrature.
 Pruned (  99, 590) grid will be used in numerical quadrature.
 IPart=  6 Atom number   2 atomic number  8 has       23718 grid points.
 IPart=  0 Atom   1 batch   23 overlaps    4 atoms,     1 shells and     0 DB shells.   NGrid=       604
 IPart=  6 Atom   2 batch    2 overlaps    4 atoms,    50 shells and     4 DB shells.   NGrid=      2522
 IPart=  4 Atom number   2 atomic number  8 has       23718 grid points.
 Symmetry reduced   194 angular points to   194 for atom    2.
 Symmetry reduced   302 angular points to   302 for atom    1.
 IPart=  4 Atom   2 batch    1 overlaps    4 atoms,    50 shells and     4 DB shells.   NGrid=      2408
 Symmetry reduced    86 angular points to    86 for atom    2.
 Pruned (  99, 590) grid will be used in numerical quadrature.
 IPart=  3 Atom number   2 atomic number  8 has       23718 grid points.
 IPart=  3 Atom   2 batch    3 overlaps    4 atoms,    50 shells and     4 DB shells.   NGrid=      2114
 Symmetry reduced   302 angular points to   302 for atom    2.
 Pruned (  99, 590) grid will be used in numerical quadrature.
 Pruned (  99, 590) grid will be used in numerical quadrature.
 IPart=  1 Atom number   2 atomic number  8 has       23718 grid points.
 IPart=  0 Atom number   2 atomic number  8 has       23718 grid points.
 IPart=  1 Atom   2 batch    4 overlaps    4 atoms,    50 shells and     4 DB shells.   NGrid=      1180
 IPart=  0 Atom   2 batch    5 overlaps    4 atoms,    50 shells and     4 DB shells.   NGrid=      1180
 Symmetry reduced   590 angular points to   590 for atom    2.
 Symmetry reduced   590 angular points to   590 for atom    2.
 Pruned (  99, 590) grid will be used in numerical quadrature.
 IPart=  5 Atom number   2 atomic number  8 has       23718 grid points.
 IPart=  5 Atom   2 batch    6 overlaps    4 atoms,    50 shells and     4 DB shells.   NGrid=      1180
 Symmetry reduced   590 angular points to   590 for atom    2.
 Pruned (  99, 590) grid will be used in numerical quadrature.
 IPart=  2 Atom number   2 atomic number  8 has       23718 grid points.
 IPart=  2 Atom   2 batch    7 overlaps    4 atoms,    50 shells and     4 DB shells.   NGrid=      1180
 Symmetry reduced   590 angular points to   590 for atom    2.
 Pruned (  99, 590) grid will be used in numerical quadrature.
 IPart=  7 Atom number   2 atomic number  8 has       23718 grid points.
 IPart=  7 Atom   2 batch    8 overlaps    4 atoms,    50 shells and     4 DB shells.   NGrid=      1180
 Symmetry reduced   590 angular points to   590 for atom    2.
 IPart=  5 Atom   2 batch    9 overlaps    4 atoms,    51 shells and     4 DB shells.   NGrid=      1180
 IPart=  1 Atom   2 batch   10 overlaps    4 atoms,    51 shells and     4 DB shells.   NGrid=      1180
 IPart=  0 Atom   2 batch   11 overlaps    4 atoms,    51 shells and     4 DB shells.   NGrid=      1180
 IPart=  2 Atom   2 batch   12 overlaps    4 atoms,    50 shells and     4 DB shells.   NGrid=       590
 IPart=  7 Atom   2 batch   13 overlaps    4 atoms,    50 shells and     4 DB shells.   NGrid=       604
 Symmetry reduced   302 angular points to   302 for atom    2.
 IPart=  5 Atom   2 batch   14 overlaps    4 atoms,    50 shells and     4 DB shells.   NGrid=       604
 Symmetry reduced   302 angular points to   302 for atom    2.
 IPart=  2 Atom   2 batch   15 overlaps    4 atoms,    47 shells and     4 DB shells.   NGrid=       604
 Symmetry reduced   302 angular points to   302 for atom    2.
 IPart=  7 Atom   2 batch   16 overlaps    4 atoms,    46 shells and     4 DB shells.   NGrid=       604
 IPart=  4 Atom   2 batch   17 overlaps    4 atoms,    44 shells and     4 DB shells.   NGrid=       604
 Symmetry reduced   302 angular points to   302 for atom    2.
 IPart=  3 Atom   2 batch   18 overlaps    4 atoms,    37 shells and     4 DB shells.   NGrid=       604
 IPart=  6 Atom   2 batch   19 overlaps    4 atoms,    29 shells and     4 DB shells.   NGrid=       604
 Symmetry reduced   302 angular points to   302 for atom    2.
 IPart=  5 Atom   2 batch   20 overlaps    4 atoms,    18 shells and     3 DB shells.   NGrid=       604
 IPart=  1 Atom   2 batch   21 overlaps    4 atoms,    12 shells and     2 DB shells.   NGrid=       604
 Symmetry reduced   302 angular points to   302 for atom    2.
 IPart=  5 Atom   2 batch   22 overlaps    4 atoms,     5 shells and     0 DB shells.   NGrid=       604
 IPart=  0 Atom   2 batch   23 overlaps    4 atoms,     1 shells and     0 DB shells.   NGrid=       604
 Symmetry reduced   302 angular points to   302 for atom    2.
 Pruned (  99, 590) grid will be used in numerical quadrature.
 IPart=  2 Atom number   3 atomic number  6 has       23114 grid points.
 Pruned (  99, 590) grid will be used in numerical quadrature.
 IPart=  2 Atom   3 batch    1 overlaps    4 atoms,    51 shells and     4 DB shells.   NGrid=      2408
 IPart=  3 Atom number   3 atomic number  6 has       23114 grid points.
 Symmetry reduced    86 angular points to    86 for atom    3.
 IPart=  3 Atom   3 batch    2 overlaps    4 atoms,    51 shells and     4 DB shells.   NGrid=      2522
 Symmetry reduced   194 angular points to   194 for atom    3.
 Pruned (  99, 590) grid will be used in numerical quadrature.
 IPart=  4 Atom number   3 atomic number  6 has       23114 grid points.
 IPart=  4 Atom   3 batch    3 overlaps    4 atoms,    51 shells and     4 DB shells.   NGrid=      2114
 Pruned (  99, 590) grid will be used in numerical quadrature.
 Symmetry reduced   302 angular points to   302 for atom    3.
 IPart=  6 Atom number   3 atomic number  6 has       23114 grid points.
 IPart=  6 Atom   3 batch    4 overlaps    4 atoms,    51 shells and     4 DB shells.   NGrid=      1180
 Pruned (  99, 590) grid will be used in numerical quadrature.
 Pruned (  99, 590) grid will be used in numerical quadrature.
 Symmetry reduced   590 angular points to   590 for atom    3.
 IPart=  1 Atom number   3 atomic number  6 has       23114 grid points.
 IPart=  0 Atom number   3 atomic number  6 has       23114 grid points.
 IPart=  1 Atom   3 batch    6 overlaps    4 atoms,    51 shells and     4 DB shells.   NGrid=      1180
 IPart=  0 Atom   3 batch    5 overlaps    4 atoms,    51 shells and     4 DB shells.   NGrid=      1180
 Symmetry reduced   590 angular points to   590 for atom    3.
 Symmetry reduced   590 angular points to   590 for atom    3.
 Pruned (  99, 590) grid will be used in numerical quadrature.
 IPart=  5 Atom number   3 atomic number  6 has       23114 grid points.
 IPart=  5 Atom   3 batch    7 overlaps    4 atoms,    51 shells and     4 DB shells.   NGrid=      1180
 Symmetry reduced   590 angular points to   590 for atom    3.
 Pruned (  99, 590) grid will be used in numerical quadrature.
 IPart=  7 Atom number   3 atomic number  6 has       23114 grid points.
 IPart=  7 Atom   3 batch    8 overlaps    4 atoms,    51 shells and     4 DB shells.   NGrid=      1180
 Symmetry reduced   590 angular points to   590 for atom    3.
 IPart=  5 Atom   3 batch    9 overlaps    4 atoms,    51 shells and     4 DB shells.   NGrid=      1180
 IPart=  6 Atom   3 batch   10 overlaps    4 atoms,    51 shells and     4 DB shells.   NGrid=      1180
 IPart=  1 Atom   3 batch   11 overlaps    4 atoms,    50 shells and     4 DB shells.   NGrid=      1180
 IPart=  0 Atom   3 batch   12 overlaps    4 atoms,    50 shells and     4 DB shells.   NGrid=       590
 IPart=  7 Atom   3 batch   13 overlaps    4 atoms,    50 shells and     4 DB shells.   NGrid=       604
 Symmetry reduced   302 angular points to   302 for atom    3.
 IPart=  5 Atom   3 batch   14 overlaps    4 atoms,    48 shells and     4 DB shells.   NGrid=       604
 Symmetry reduced   302 angular points to   302 for atom    3.
 IPart=  0 Atom   3 batch   15 overlaps    4 atoms,    45 shells and     4 DB shells.   NGrid=       604
 Symmetry reduced   302 angular points to   302 for atom    3.
 IPart=  7 Atom   3 batch   16 overlaps    4 atoms,    36 shells and     4 DB shells.   NGrid=       604
 IPart=  5 Atom   3 batch   17 overlaps    4 atoms,    31 shells and     4 DB shells.   NGrid=       604
 IPart=  4 Atom   3 batch   18 overlaps    4 atoms,    21 shells and     4 DB shells.   NGrid=       604
 IPart=  2 Atom   3 batch   19 overlaps    4 atoms,    16 shells and     4 DB shells.   NGrid=       604
 Symmetry reduced   302 angular points to   302 for atom    3.
 IPart=  6 Atom   3 batch   20 overlaps    4 atoms,    10 shells and     0 DB shells.   NGrid=       604
 Symmetry reduced   302 angular points to   302 for atom    3.
 IPart=  1 Atom   3 batch   21 overlaps    4 atoms,     5 shells and     0 DB shells.   NGrid=       604
 Symmetry reduced   302 angular points to   302 for atom    3.
 IPart=  0 Atom   3 batch   22 overlaps    4 atoms,     1 shells and     0 DB shells.   NGrid=       604
 Pruned (  99, 590) grid will be used in numerical quadrature.
 IPart=  7 Atom number   4 atomic number  1 has       23164 grid points.
 IPart=  7 Atom   4 batch    1 overlaps    4 atoms,    49 shells and     4 DB shells.   NGrid=      2838
 Symmetry reduced    86 angular points to    86 for atom    4.
 Pruned (  99, 590) grid will be used in numerical quadrature.
 Pruned (  99, 590) grid will be used in numerical quadrature.
 Pruned (  99, 590) grid will be used in numerical quadrature.
 IPart=  4 Atom number   4 atomic number  1 has       23164 grid points.
 IPart=  6 Atom number   4 atomic number  1 has       23164 grid points.
 IPart=  4 Atom   4 batch    3 overlaps    4 atoms,    49 shells and     4 DB shells.   NGrid=      2416
 IPart=  6 Atom   4 batch    4 overlaps    4 atoms,    49 shells and     4 DB shells.   NGrid=      1180
 IPart=  2 Atom number   4 atomic number  1 has       23164 grid points.
 Symmetry reduced   302 angular points to   302 for atom    4.
 Symmetry reduced   590 angular points to   590 for atom    4.
 IPart=  2 Atom   4 batch    2 overlaps    4 atoms,    49 shells and     4 DB shells.   NGrid=      1552
 Symmetry reduced   194 angular points to   194 for atom    4.
 Pruned (  99, 590) grid will be used in numerical quadrature.
 IPart=  3 Atom number   4 atomic number  1 has       23164 grid points.
 IPart=  3 Atom   4 batch    5 overlaps    4 atoms,    51 shells and     4 DB shells.   NGrid=      1180
 Symmetry reduced   590 angular points to   590 for atom    4.
 Pruned (  99, 590) grid will be used in numerical quadrature.
 IPart=  5 Atom number   4 atomic number  1 has       23164 grid points.
 IPart=  5 Atom   4 batch    6 overlaps    4 atoms,    51 shells and     4 DB shells.   NGrid=      1180
 Pruned (  99, 590) grid will be used in numerical quadrature.
 Symmetry reduced   590 angular points to   590 for atom    4.
 IPart=  0 Atom number   4 atomic number  1 has       23164 grid points.
 IPart=  0 Atom   4 batch    7 overlaps    4 atoms,    51 shells and     4 DB shells.   NGrid=      1180
 Pruned (  99, 590) grid will be used in numerical quadrature.
 Symmetry reduced   590 angular points to   590 for atom    4.
 IPart=  1 Atom number   4 atomic number  1 has       23164 grid points.
 IPart=  1 Atom   4 batch    8 overlaps    4 atoms,    51 shells and     4 DB shells.   NGrid=      1180
 Symmetry reduced   590 angular points to   590 for atom    4.
 IPart=  5 Atom   4 batch    9 overlaps    4 atoms,    51 shells and     4 DB shells.   NGrid=      1180
 IPart=  6 Atom   4 batch   10 overlaps    4 atoms,    51 shells and     4 DB shells.   NGrid=      1180
 IPart=  3 Atom   4 batch   11 overlaps    4 atoms,    51 shells and     4 DB shells.   NGrid=      1180
 IPart=  0 Atom   4 batch   12 overlaps    4 atoms,    51 shells and     4 DB shells.   NGrid=      1180
 IPart=  1 Atom   4 batch   13 overlaps    4 atoms,    51 shells and     4 DB shells.   NGrid=       604
 Symmetry reduced   302 angular points to   302 for atom    4.
 IPart=  2 Atom   4 batch   14 overlaps    4 atoms,    51 shells and     4 DB shells.   NGrid=       604
 Symmetry reduced   302 angular points to   302 for atom    4.
 IPart=  5 Atom   4 batch   15 overlaps    4 atoms,    45 shells and     4 DB shells.   NGrid=       604
 Symmetry reduced   302 angular points to   302 for atom    4.
 IPart=  1 Atom   4 batch   16 overlaps    4 atoms,    44 shells and     4 DB shells.   NGrid=       604
 IPart=  2 Atom   4 batch   17 overlaps    4 atoms,    33 shells and     4 DB shells.   NGrid=       604
 IPart=  5 Atom   4 batch   18 overlaps    4 atoms,    23 shells and     4 DB shells.   NGrid=       604
 IPart=  7 Atom   4 batch   19 overlaps    4 atoms,    18 shells and     4 DB shells.   NGrid=       604
 Symmetry reduced   302 angular points to   302 for atom    4.
 IPart=  5 Atom   4 batch   20 overlaps    4 atoms,     8 shells and     0 DB shells.   NGrid=       604
 IPart=  4 Atom   4 batch   21 overlaps    4 atoms,     5 shells and     0 DB shells.   NGrid=       604
 IPart=  3 Atom   4 batch   22 overlaps    4 atoms,     0 shells and     0 DB shells.   NGrid=       302
 There are a total of       93412 grid points.
 ElSum from          density=       24.0000000897
 ElSum from atomic densities=       22.9999997939

 Hirshfeld populations at iteration   1 (CX, CA, CB, DipXYZ):
               1          2          3          4          5          6
     1  O    0.000017   4.270913   4.270913  -0.254686   0.103799   0.000000
     2  O    0.000017   4.271013   4.271013   0.254733   0.103967  -0.000000
     3  C    0.000000   2.939499   2.939499   0.000033   0.060113   0.000000
     4  H    0.000007   0.518574   0.518574  -0.000019   0.089784   0.000000
       Tot   0.000041  12.000000  12.000000   0.000061   0.357662   0.000000

 Dip from Atomic Chgs              0.000415   0.409006   0.000000
         Total Dipole              0.000476   0.766668   0.000000

 Hirshfeld charges, spin densities, dipoles, and CM5 charges using IRadAn=      5:
              Q-H        S-H        Dx         Dy         Dz        Q-CM5   
     1  O   -0.541827   0.000000  -0.254686   0.103799   0.000000  -0.584369
     2  O   -0.542026   0.000000   0.254733   0.103967  -0.000000  -0.584549
     3  C    0.121001   0.000000   0.000033   0.060113   0.000000   0.139925
     4  H   -0.037148   0.000000  -0.000019   0.089784   0.000000   0.028993
       Tot  -1.000000   0.000000   0.000061   0.357662   0.000000  -1.000000
 Hirshfeld charges with hydrogens summed into heavy atoms:
              Q-H       Q-CM5   
     1  O   -0.541827  -0.584369
     2  O   -0.542026  -0.584549
     3  C    0.083853   0.168918
 
 EQQ=  0.00000000000     EQD=  0.00000000000     EDD= 0.111807695797E-02
 EQQ+QD+DD= 0.111807695797E-02
 
  Exact polarizability:      33.603       0.002      28.294      -0.000       0.000      20.433
 Approx polarizability:      27.784       0.002      23.137      -0.000      -0.000      18.734
 Entering OneElI...
 OneElI was handed  1572797418 working-precision words.
 Calculate electrostatic properties
    NBasis =   161  MinDer = 0  MaxDer = 0
    NGrid  =     4  NMatD  =   1
 Requested accuracy = 0.1000D-12
 ShPair: Thresh= 1.00D-13 NBox=     0 BxSize= 0.00D+00 RnKept= 4.38D+00
         NSMCal=                 1326 NSMKep=                1319
 PrmmSu-InSpLW:  IPartL=    0 NPrtUS=    8 NPrtUL=    1 DoSpLW=F IThBeg=    0 IThEnd=    7 NThAct=    8.
 PrSmSu:  IncTry=   512 NBBP=           5276 NTPThr=   100 NPartT=    8 Incr=           6 LDynOK=F GPUOK=F.
 PrsmSu:  NPrtUS=   8 ThrOK=T IAlg=2 LenDen=           0 ISkipM=0 DoSpLW=F IThBeg=    0 IThEnd=    7.
 Prism:   IPart=     0 DynPar=F LinDyn=F Incr=           6.
 PRISM was handed   196558843 working-precision words and  1319 shell-pairs
 PRISM was handed   196558843 working-precision words and  1319 shell-pairs
 PRISM was handed   196558843 working-precision words and  1319 shell-pairs
 PRISM was handed   196558843 working-precision words and  1319 shell-pairs
 PRISM was handed   196558843 working-precision words and  1319 shell-pairs
 PRISM was handed   196558843 working-precision words and  1319 shell-pairs
 PRISM was handed   196558843 working-precision words and  1319 shell-pairs
 PRISM was handed   196558843 working-precision words and  1319 shell-pairs
 IPart=  5 NShTot=         624 NBatch=         156 AvBLen=         4.0
 PrsmSu-ThDecC:  IPartSL=    5    0 NPrtUSL=    8    1 IThBeg=    0 IThEnd=    7 CPU=   -1 GPU=   -1 NThAct=    8.
 IPart=  3 NShTot=         640 NBatch=         160 AvBLen=         4.0
 PrsmSu-ThDecC:  IPartSL=    3    0 NPrtUSL=    8    1 IThBeg=    0 IThEnd=    7 CPU=   -1 GPU=   -1 NThAct=    7.
 IPart=  0 NShTot=         764 NBatch=         191 AvBLen=         4.0
 IPart=  7 NShTot=         596 NBatch=         149 AvBLen=         4.0
 PrsmSu-ThDecC:  IPartSL=    0    0 NPrtUSL=    8    1 IThBeg=    0 IThEnd=    7 CPU=   -1 GPU=   -1 NThAct=    6.
 PrsmSu-ThDecC:  IPartSL=    7    0 NPrtUSL=    8    1 IThBeg=    0 IThEnd=    7 CPU=   -1 GPU=   -1 NThAct=    5.
 IPart=  6 NShTot=         612 NBatch=         153 AvBLen=         4.0
 PrsmSu-ThDecC:  IPartSL=    6    0 NPrtUSL=    8    1 IThBeg=    0 IThEnd=    7 CPU=   -1 GPU=   -1 NThAct=    4.
 IPart=  4 NShTot=         628 NBatch=         157 AvBLen=         4.0
 PrsmSu-ThDecC:  IPartSL=    4    0 NPrtUSL=    8    1 IThBeg=    0 IThEnd=    7 CPU=   -1 GPU=   -1 NThAct=    3.
 IPart=  2 NShTot=         664 NBatch=         166 AvBLen=         4.0
 PrsmSu-ThDecC:  IPartSL=    2    0 NPrtUSL=    8    1 IThBeg=    0 IThEnd=    7 CPU=   -1 GPU=   -1 NThAct=    2.
 IPart=  1 NShTot=         748 NBatch=         187 AvBLen=         4.0
 PrsmSu-ThDecC:  IPartSL=    1    0 NPrtUSL=    8    1 IThBeg=    0 IThEnd=    7 CPU=   -1 GPU=   -1 NThAct=    1.
 PrSmSu:  NxtVal=             49.
 --------------------------------------------------------
       Center         ----      EFG at Nuclei      ----
                      3XX-RR        3YY-RR        3ZZ-RR
 --------------------------------------------------------
     1   Atom       -0.670144      1.082712     -0.412567
     2   Atom       -0.670119      1.081794     -0.411675
     3   Atom        0.386407      0.238480     -0.624887
     4   Atom        0.120992     -0.242308      0.121316
 --------------------------------------------------------
                        XY            XZ            YZ
 --------------------------------------------------------
     1   Atom        0.966901      0.000000      0.000000
     2   Atom       -0.968129     -0.000000      0.000000
     3   Atom       -0.000069      0.000000     -0.000000
     4   Atom        0.000115     -0.000000      0.000000
 --------------------------------------------------------


 ---------------------------------------------------------------------------------
              Nuclear Quadrupole Coupling Constant in Principal Axis System
 ---------------------------------------------------------------------------------

       Atom             a.u.   MegaHertz   Gauss  10(-4) cm-1        Axes


 ---------------------------------------------------------------------------------

 No NMR shielding tensors so no spin-rotation constants.
 Leave Link  601 at Sun Sep 28 21:02:06 2025, MaxMem=  1572864000 cpu:               2.8 elap:               0.5
 (Enter /software/sse/easybuild/prefix/software/Gaussian/16.C.01-avx2-nsc1/g16/l602.exe)
 FitSet:  NAtFit=     4 NAtPot=     4 NAtFrz=     0 MDM=     8 TotChg=  -1.00000
 Merz-Kollman atomic radii used.
 Read replacement radii for each type of atom:
 Atom Element Radius
    1     8    1.40
    2     8    1.40
    3     6    1.50
    4     1    1.20
 Generate VDW surfaces: Layer= 4 Dens= 6 Start= 1.400 Inc= 0.200

 **********************************************************************

            Electrostatic Properties Using The SCF Density.

 **********************************************************************

       Atomic Center    1 is at   1.158965 -0.213073  0.000000
       Atomic Center    2 is at  -1.158919 -0.213691  0.000000
       Atomic Center    3 is at  -0.000000  0.325655 -0.000000
       Atomic Center    4 is at  -0.000364  1.460180 -0.000000
      ESP Fit Center    5 is at   1.158965 -0.213073  1.960000
      ESP Fit Center    6 is at   1.566472 -0.213073  1.917169
      ESP Fit Center    7 is at   1.362718  0.139838  1.917169
      ESP Fit Center    8 is at   0.955211  0.139838  1.917169
      ESP Fit Center    9 is at   0.751458 -0.213073  1.917169
      ESP Fit Center   10 is at   0.955211 -0.565985  1.917169
      ESP Fit Center   11 is at   1.362718 -0.565985  1.917169
      ESP Fit Center   12 is at   1.956169 -0.213073  1.790549
      ESP Fit Center   13 is at   1.849364  0.185529  1.790549
      ESP Fit Center   14 is at   1.557567  0.477325  1.790549
      ESP Fit Center   15 is at   1.158965  0.584130  1.790549
      ESP Fit Center   16 is at   0.760363 -0.903472  1.790549
      ESP Fit Center   17 is at   1.158965 -1.010277  1.790549
      ESP Fit Center   18 is at   1.557567 -0.903472  1.790549
      ESP Fit Center   19 is at   1.849364 -0.611675  1.790549
      ESP Fit Center   20 is at   2.311024 -0.213073  1.585673
      ESP Fit Center   21 is at   2.233228  0.203098  1.585673
      ESP Fit Center   22 is at   2.010347  0.563064  1.585673
      ESP Fit Center   23 is at   1.672482  0.818208  1.585673
      ESP Fit Center   24 is at   1.265264  0.934071  1.585673
      ESP Fit Center   25 is at   0.464694 -1.132436  1.585673
      ESP Fit Center   26 is at   0.843689 -1.321153  1.585673
      ESP Fit Center   27 is at   1.265264 -1.360218  1.585673
      ESP Fit Center   28 is at   1.672482 -1.244354  1.585673
      ESP Fit Center   29 is at   2.010347 -0.989211  1.585673
      ESP Fit Center   30 is at   2.233228 -0.629245  1.585673
      ESP Fit Center   31 is at   2.615529 -0.213073  1.311496
      ESP Fit Center   32 is at   2.556528  0.197288  1.311496
      ESP Fit Center   33 is at   2.384304  0.574404  1.311496
      ESP Fit Center   34 is at   2.112811  0.887724  1.311496
      ESP Fit Center   35 is at   1.764043  1.111864  1.311496
      ESP Fit Center   36 is at   0.205118 -1.313871  1.311496
      ESP Fit Center   37 is at   0.553886 -1.538010  1.311496
      ESP Fit Center   38 is at   0.951674 -1.654812  1.311496
      ESP Fit Center   39 is at   1.366256 -1.654812  1.311496
      ESP Fit Center   40 is at   1.764043 -1.538010  1.311496
      ESP Fit Center   41 is at   2.112811 -1.313871  1.311496
      ESP Fit Center   42 is at   2.384304 -1.000551  1.311496
      ESP Fit Center   43 is at   2.556528 -0.623435  1.311496
      ESP Fit Center   44 is at   2.856375 -0.213073  0.980000
      ESP Fit Center   45 is at   2.803047  0.209055  0.980000
      ESP Fit Center   46 is at   2.646416  0.604660  0.980000
      ESP Fit Center   47 is at   2.396323  0.948884  0.980000
      ESP Fit Center   48 is at   2.068483  1.220097  0.980000
      ESP Fit Center   49 is at   1.683493  1.401259  0.980000
      ESP Fit Center   50 is at   0.436243 -1.748936  0.980000
      ESP Fit Center   51 is at   0.840902 -1.880417  0.980000
      ESP Fit Center   52 is at   1.265546 -1.907134  0.980000
      ESP Fit Center   53 is at   1.683493 -1.827406  0.980000
      ESP Fit Center   54 is at   2.068483 -1.646244  0.980000
      ESP Fit Center   55 is at   2.396323 -1.375030  0.980000
      ESP Fit Center   56 is at   2.646416 -1.030807  0.980000
      ESP Fit Center   57 is at   2.803047 -0.635202  0.980000
      ESP Fit Center   58 is at   3.023036 -0.213073  0.605673
      ESP Fit Center   59 is at   2.976300  0.201721  0.605673
      ESP Fit Center   60 is at   2.838435  0.595717  0.605673
      ESP Fit Center   61 is at   2.616354  0.949156  0.605673
      ESP Fit Center   62 is at   2.321194  1.244316  0.605673
      ESP Fit Center   63 is at   1.967755  1.466396  0.605673
      ESP Fit Center   64 is at   1.573760  1.604261  0.605673
      ESP Fit Center   65 is at   0.350175 -1.892543  0.605673
      ESP Fit Center   66 is at   0.744170 -2.030408  0.605673
      ESP Fit Center   67 is at   1.158965 -2.077144  0.605673
      ESP Fit Center   68 is at   1.573760 -2.030408  0.605673
      ESP Fit Center   69 is at   1.967755 -1.892543  0.605673
      ESP Fit Center   70 is at   2.321194 -1.670463  0.605673
      ESP Fit Center   71 is at   2.616354 -1.375302  0.605673
      ESP Fit Center   72 is at   2.838435 -1.021863  0.605673
      ESP Fit Center   73 is at   2.976300 -0.627868  0.605673
      ESP Fit Center   74 is at   3.108228 -0.213073  0.204876
      ESP Fit Center   75 is at   3.062655  0.205961  0.204876
      ESP Fit Center   76 is at   2.928068  0.605401  0.204876
      ESP Fit Center   77 is at   2.710760  0.966570  0.204876
      ESP Fit Center   78 is at   2.420891  1.272581  0.204876
      ESP Fit Center   79 is at   2.072016  1.509124  0.204876
      ESP Fit Center   80 is at   1.680448  1.665139  0.204876
      ESP Fit Center   81 is at   0.065064 -1.826457  0.204876
      ESP Fit Center   82 is at   0.437468 -2.023893  0.204876
      ESP Fit Center   83 is at   0.843609 -2.136658  0.204876
      ESP Fit Center   84 is at   1.264496 -2.159478  0.204876
      ESP Fit Center   85 is at   1.680448 -2.091286  0.204876
      ESP Fit Center   86 is at   2.072016 -1.935271  0.204876
      ESP Fit Center   87 is at   2.420891 -1.698728  0.204876
      ESP Fit Center   88 is at   2.710760 -1.392717  0.204876
      ESP Fit Center   89 is at   2.928068 -1.031548  0.204876
      ESP Fit Center   90 is at   3.062655 -0.632107  0.204876
      ESP Fit Center   91 is at   3.108228 -0.213073 -0.204876
      ESP Fit Center   92 is at   3.062655  0.205961 -0.204876
      ESP Fit Center   93 is at   2.928068  0.605401 -0.204876
      ESP Fit Center   94 is at   2.710760  0.966570 -0.204876
      ESP Fit Center   95 is at   2.420891  1.272581 -0.204876
      ESP Fit Center   96 is at   2.072016  1.509124 -0.204876
      ESP Fit Center   97 is at   1.680448  1.665139 -0.204876
      ESP Fit Center   98 is at   0.065064 -1.826457 -0.204876
      ESP Fit Center   99 is at   0.437468 -2.023893 -0.204876
      ESP Fit Center  100 is at   0.843609 -2.136658 -0.204876
      ESP Fit Center  101 is at   1.264496 -2.159478 -0.204876
      ESP Fit Center  102 is at   1.680448 -2.091286 -0.204876
      ESP Fit Center  103 is at   2.072016 -1.935271 -0.204876
      ESP Fit Center  104 is at   2.420891 -1.698728 -0.204876
      ESP Fit Center  105 is at   2.710760 -1.392717 -0.204876
      ESP Fit Center  106 is at   2.928068 -1.031548 -0.204876
      ESP Fit Center  107 is at   3.062655 -0.632107 -0.204876
      ESP Fit Center  108 is at   3.023036 -0.213073 -0.605673
      ESP Fit Center  109 is at   2.976300  0.201721 -0.605673
      ESP Fit Center  110 is at   2.838435  0.595717 -0.605673
      ESP Fit Center  111 is at   2.616354  0.949156 -0.605673
      ESP Fit Center  112 is at   2.321194  1.244316 -0.605673
      ESP Fit Center  113 is at   1.967755  1.466396 -0.605673
      ESP Fit Center  114 is at   1.573760  1.604261 -0.605673
      ESP Fit Center  115 is at   0.350175 -1.892543 -0.605673
      ESP Fit Center  116 is at   0.744170 -2.030408 -0.605673
      ESP Fit Center  117 is at   1.158965 -2.077144 -0.605673
      ESP Fit Center  118 is at   1.573760 -2.030408 -0.605673
      ESP Fit Center  119 is at   1.967755 -1.892543 -0.605673
      ESP Fit Center  120 is at   2.321194 -1.670463 -0.605673
      ESP Fit Center  121 is at   2.616354 -1.375302 -0.605673
      ESP Fit Center  122 is at   2.838435 -1.021863 -0.605673
      ESP Fit Center  123 is at   2.976300 -0.627868 -0.605673
      ESP Fit Center  124 is at   2.856375 -0.213073 -0.980000
      ESP Fit Center  125 is at   2.803047  0.209055 -0.980000
      ESP Fit Center  126 is at   2.646416  0.604660 -0.980000
      ESP Fit Center  127 is at   2.396323  0.948884 -0.980000
      ESP Fit Center  128 is at   2.068483  1.220097 -0.980000
      ESP Fit Center  129 is at   1.683493  1.401259 -0.980000
      ESP Fit Center  130 is at   0.436243 -1.748936 -0.980000
      ESP Fit Center  131 is at   0.840902 -1.880417 -0.980000
      ESP Fit Center  132 is at   1.265546 -1.907134 -0.980000
      ESP Fit Center  133 is at   1.683493 -1.827406 -0.980000
      ESP Fit Center  134 is at   2.068483 -1.646244 -0.980000
      ESP Fit Center  135 is at   2.396323 -1.375030 -0.980000
      ESP Fit Center  136 is at   2.646416 -1.030807 -0.980000
      ESP Fit Center  137 is at   2.803047 -0.635202 -0.980000
      ESP Fit Center  138 is at   2.615529 -0.213073 -1.311496
      ESP Fit Center  139 is at   2.556528  0.197288 -1.311496
      ESP Fit Center  140 is at   2.384304  0.574404 -1.311496
      ESP Fit Center  141 is at   2.112811  0.887724 -1.311496
      ESP Fit Center  142 is at   1.764043  1.111864 -1.311496
      ESP Fit Center  143 is at   0.205118 -1.313871 -1.311496
      ESP Fit Center  144 is at   0.553886 -1.538010 -1.311496
      ESP Fit Center  145 is at   0.951674 -1.654812 -1.311496
      ESP Fit Center  146 is at   1.366256 -1.654812 -1.311496
      ESP Fit Center  147 is at   1.764043 -1.538010 -1.311496
      ESP Fit Center  148 is at   2.112811 -1.313871 -1.311496
      ESP Fit Center  149 is at   2.384304 -1.000551 -1.311496
      ESP Fit Center  150 is at   2.556528 -0.623435 -1.311496
      ESP Fit Center  151 is at   2.311024 -0.213073 -1.585673
      ESP Fit Center  152 is at   2.233228  0.203098 -1.585673
      ESP Fit Center  153 is at   2.010347  0.563064 -1.585673
      ESP Fit Center  154 is at   1.672482  0.818208 -1.585673
      ESP Fit Center  155 is at   1.265264  0.934071 -1.585673
      ESP Fit Center  156 is at   0.464694 -1.132436 -1.585673
      ESP Fit Center  157 is at   0.843689 -1.321153 -1.585673
      ESP Fit Center  158 is at   1.265264 -1.360218 -1.585673
      ESP Fit Center  159 is at   1.672482 -1.244354 -1.585673
      ESP Fit Center  160 is at   2.010347 -0.989211 -1.585673
      ESP Fit Center  161 is at   2.233228 -0.629245 -1.585673
      ESP Fit Center  162 is at   1.956169 -0.213073 -1.790549
      ESP Fit Center  163 is at   1.849364  0.185529 -1.790549
      ESP Fit Center  164 is at   1.557567  0.477325 -1.790549
      ESP Fit Center  165 is at   1.158965  0.584130 -1.790549
      ESP Fit Center  166 is at   0.760363 -0.903472 -1.790549
      ESP Fit Center  167 is at   1.158965 -1.010277 -1.790549
      ESP Fit Center  168 is at   1.557567 -0.903472 -1.790549
      ESP Fit Center  169 is at   1.849364 -0.611675 -1.790549
      ESP Fit Center  170 is at   1.566472 -0.213073 -1.917169
      ESP Fit Center  171 is at   1.362718  0.139838 -1.917169
      ESP Fit Center  172 is at   0.955211  0.139838 -1.917169
      ESP Fit Center  173 is at   0.751458 -0.213073 -1.917169
      ESP Fit Center  174 is at   0.955211 -0.565985 -1.917169
      ESP Fit Center  175 is at   1.362718 -0.565985 -1.917169
      ESP Fit Center  176 is at   1.158965 -0.213073 -1.960000
      ESP Fit Center  177 is at  -1.158919 -0.213691  1.960000
      ESP Fit Center  178 is at  -0.751413 -0.213691  1.917169
      ESP Fit Center  179 is at  -0.955166  0.139221  1.917169
      ESP Fit Center  180 is at  -1.362673  0.139221  1.917169
      ESP Fit Center  181 is at  -1.566426 -0.213691  1.917169
      ESP Fit Center  182 is at  -1.362673 -0.566602  1.917169
      ESP Fit Center  183 is at  -0.955166 -0.566602  1.917169
      ESP Fit Center  184 is at  -1.158919  0.583513  1.790549
      ESP Fit Center  185 is at  -1.557521  0.476708  1.790549
      ESP Fit Center  186 is at  -1.849318  0.184911  1.790549
      ESP Fit Center  187 is at  -1.956123 -0.213691  1.790549
      ESP Fit Center  188 is at  -1.849318 -0.612293  1.790549
      ESP Fit Center  189 is at  -1.557521 -0.904089  1.790549
      ESP Fit Center  190 is at  -1.158919 -1.010894  1.790549
      ESP Fit Center  191 is at  -0.760318 -0.904089  1.790549
      ESP Fit Center  192 is at  -1.474195  0.894389  1.585673
      ESP Fit Center  193 is at  -1.853190  0.705672  1.585673
      ESP Fit Center  194 is at  -2.138420  0.392790  1.585673
      ESP Fit Center  195 is at  -2.291363 -0.002000  1.585673
      ESP Fit Center  196 is at  -2.291363 -0.425381  1.585673
      ESP Fit Center  197 is at  -2.138420 -0.820172  1.585673
      ESP Fit Center  198 is at  -1.853190 -1.133054  1.585673
      ESP Fit Center  199 is at  -1.474195 -1.321771  1.585673
      ESP Fit Center  200 is at  -1.052621 -1.360835  1.585673
      ESP Fit Center  201 is at  -0.645403 -1.244972  1.585673
      ESP Fit Center  202 is at  -1.763998  1.111246  1.311496
      ESP Fit Center  203 is at  -2.112766  0.887107  1.311496
      ESP Fit Center  204 is at  -2.384259  0.573787  1.311496
      ESP Fit Center  205 is at  -2.556482  0.196671  1.311496
      ESP Fit Center  206 is at  -2.615483 -0.213691  1.311496
      ESP Fit Center  207 is at  -2.556482 -0.624052  1.311496
      ESP Fit Center  208 is at  -2.384259 -1.001169  1.311496
      ESP Fit Center  209 is at  -2.112766 -1.314488  1.311496
      ESP Fit Center  210 is at  -1.763998 -1.538628  1.311496
      ESP Fit Center  211 is at  -1.366210 -1.655429  1.311496
      ESP Fit Center  212 is at  -0.951629 -1.655429  1.311496
      ESP Fit Center  213 is at  -0.553841 -1.538628  1.311496
      ESP Fit Center  214 is at  -0.205073 -1.314488  1.311496
      ESP Fit Center  215 is at  -1.476982  1.453653  0.980000
      ESP Fit Center  216 is at  -1.881641  1.322172  0.980000
      ESP Fit Center  217 is at  -2.240889  1.094186  0.980000
      ESP Fit Center  218 is at  -2.532153  0.784022  0.980000
      ESP Fit Center  219 is at  -2.737131  0.411168  0.980000
      ESP Fit Center  220 is at  -2.842945 -0.000949  0.980000
      ESP Fit Center  221 is at  -2.842945 -0.426432  0.980000
      ESP Fit Center  222 is at  -2.737131 -0.838549  0.980000
      ESP Fit Center  223 is at  -2.532153 -1.211403  0.980000
      ESP Fit Center  224 is at  -2.240889 -1.521567  0.980000
      ESP Fit Center  225 is at  -1.881641 -1.749553  0.980000
      ESP Fit Center  226 is at  -1.476982 -1.881035  0.980000
      ESP Fit Center  227 is at  -1.052338 -1.907751  0.980000
      ESP Fit Center  228 is at  -0.634391 -1.828023  0.980000
      ESP Fit Center  229 is at  -0.249402 -1.646861  0.980000
      ESP Fit Center  230 is at  -1.573714  1.603644  0.605673
      ESP Fit Center  231 is at  -1.967709  1.465779  0.605673
      ESP Fit Center  232 is at  -2.321149  1.243699  0.605673
      ESP Fit Center  233 is at  -2.616309  0.948538  0.605673
      ESP Fit Center  234 is at  -2.838389  0.595099  0.605673
      ESP Fit Center  235 is at  -2.976254  0.201104  0.605673
      ESP Fit Center  236 is at  -3.022990 -0.213691  0.605673
      ESP Fit Center  237 is at  -2.976254 -0.628485  0.605673
      ESP Fit Center  238 is at  -2.838389 -1.022481  0.605673
[...]
                                                  X                                                                                  
                                                  X                                                                                  
                                                  X                                                                                  
                                                  X                                                                                  
                                                  X                                                                                  
                                                  X                                                                                  
                                                  X                                                                                  
                                                  X                                                                                  
                                                  X                                                                                  
                                                  X                                                                                  
                                                  X                                                                                  
 
 
                                                               formate
                                                            Raman Spectrum
 
      2                                           1             11            1                                                      
      7                                           8             54            1                8                                     
      9                                           0             08            9                2                                     
      2                                           7             72            6                4                                     
 
      X                                           X             XX            X                X                                     
      X                                                                                                                              
      X                                                                                                                              
      X                                                                                                                              
      X                                                                                                                              
      X                                                                                                                              
      X                                                                                                                              
      X                                                                                                                              
      X                                                                                                                              
      X                                                                                                                              
      X                                                                                                                              
      X                                                                                                                              
      X                                                                                                                              
      X                                                                                                                              
      X                                                                                                                              
      X                                                                                                                              
      X                                                                                                                              
      X                                                                                                                              
      X                                                                                                                              
      X                                                                                                                              
 
 ***** Axes restored to original set *****
 -------------------------------------------------------------------
 Center     Atomic                   Forces (Hartrees/Bohr)
 Number     Number              X              Y              Z
 -------------------------------------------------------------------
      1        8          -0.000000022   -0.000000045    0.000000000
      2        8           0.000000022   -0.000000045   -0.000000000
      3        6          -0.000000000    0.000000028    0.000000000
      4        1          -0.000000000    0.000000063   -0.000000000
 -------------------------------------------------------------------
 Cartesian Forces:  Max     0.000000063 RMS     0.000000029
 Force constants in Cartesian coordinates: 
                1             2             3             4             5 
      1  0.644728D+00
      2  0.245765D+00  0.220638D+00
      3  0.000000D+00  0.000000D+00  0.322487D-01
      4 -0.139235D+00  0.115572D-02  0.000000D+00  0.644752D+00
      5 -0.116505D-02  0.591187D-01  0.000000D+00 -0.245745D+00  0.220615D+00
      6  0.000000D+00  0.000000D+00  0.322487D-01  0.000000D+00  0.000000D+00
      7 -0.492331D+00 -0.199750D+00  0.000000D+00 -0.492351D+00  0.199738D+00
      8 -0.212387D+00 -0.242269D+00  0.000000D+00  0.212375D+00 -0.242249D+00
      9  0.000000D+00  0.000000D+00 -0.941996D-01  0.000000D+00  0.000000D+00
     10 -0.131619D-01 -0.471712D-01  0.000000D+00 -0.131656D-01  0.471724D-01
     11 -0.322137D-01 -0.374877D-01  0.000000D+00  0.322149D-01 -0.374839D-01
     12  0.000000D+00  0.000000D+00  0.297022D-01  0.000000D+00  0.000000D+00
                6             7             8             9            10 
      6  0.322487D-01
      7  0.000000D+00  0.104021D+01
      8  0.000000D+00  0.815841D-05  0.691386D+00
      9 -0.941996D-01  0.000000D+00  0.000000D+00  0.275160D+00
     10  0.000000D+00 -0.555256D-01  0.355690D-05  0.000000D+00  0.818531D-01
     11  0.000000D+00  0.357136D-05 -0.206868D+00  0.000000D+00 -0.470539D-05
     12  0.297022D-01  0.000000D+00  0.000000D+00 -0.867611D-01  0.000000D+00
               11            12 
     11  0.281839D+00
     12  0.000000D+00  0.273567D-01
 FormGI is forming the generalized inverse of G from B-inverse, IUseBI=4.
 Force constants in internal coordinates: 
                1             2             3             4             5 
      1  0.757273D+00
      2  0.124243D+00  0.757273D+00
      3  0.449711D-01  0.449711D-01  0.281839D+00
      4  0.260181D-01  0.260181D-01 -0.317496D-01  0.218369D+00
      5  0.205783D-01 -0.465964D-01  0.158748D-01 -0.109184D+00  0.146230D+00
      6 -0.465964D-01  0.205783D-01  0.158748D-01 -0.109184D+00 -0.370455D-01
      7  0.000000D+00  0.000000D+00  0.000000D+00  0.000000D+00  0.000000D+00
                6             7 
      6  0.146230D+00
      7  0.000000D+00  0.143296D+00
 Leave Link  716 at Sun Sep 28 21:03:36 2025, MaxMem=  1572864000 cpu:               0.3 elap:               0.1
 (Enter /software/sse/easybuild/prefix/software/Gaussian/16.C.01-avx2-nsc1/g16/l103.exe)

 GradGradGradGradGradGradGradGradGradGradGradGradGradGradGradGradGradGrad
 Berny optimization.
 Red2BG is reusing G-inverse.
 Internal  Forces:  Max     0.000000063 RMS     0.000000039
 Search for a local minimum.
 Step number   1 out of a maximum of    2
 All quantities printed in internal units (Hartrees-Bohrs-Radians)
 Second derivative matrix not updated -- analytic derivatives used.
 The second derivative matrix:
                          R1        R2        R3        A1        A2
           R1           0.75727
           R2           0.12424   0.75727
           R3           0.04497   0.04497   0.28184
           A1           0.02602   0.02602  -0.03175   0.21837
           A2           0.02058  -0.04660   0.01587  -0.10918   0.14623
           A3          -0.04660   0.02058   0.01587  -0.10918  -0.03705
           D1          -0.00000   0.00000  -0.00000  -0.00000   0.00000
                          A3        D1
           A3           0.14623
           D1           0.00000   0.14330
 ITU=  0
     Eigenvalues ---    0.14330   0.17346   0.25005   0.34971   0.64285
     Eigenvalues ---    0.89115
 Angle between quadratic step and forces=  90.00 degrees.
 Linear search not attempted -- first point.
 Iteration  1 RMS(Cart)=  0.00000011 RMS(Int)=  0.00000000
 ITry= 1 IFail=0 DXMaxC= 2.23D-07 DCOld= 1.00D+10 DXMaxT= 3.00D-01 DXLimC= 3.00D+00 Rises=F
 ClnCor:  largest displacement from symmetrization is 1.47D-13 for atom     2.
 Variable       Old X    -DE/DX   Delta X   Delta X   Delta X     New X
                                 (Linear)    (Quad)   (Total)
    R1        2.32232   0.00000   0.00000   0.00000   0.00000   2.32232
    R2        2.32232   0.00000   0.00000   0.00000   0.00000   2.32232
    R3        2.11616   0.00000   0.00000   0.00000   0.00000   2.11616
    A1        2.27550  -0.00000   0.00000  -0.00000  -0.00000   2.27550
    A2        2.00384   0.00000   0.00000   0.00000   0.00000   2.00384
    A3        2.00384   0.00000   0.00000   0.00000   0.00000   2.00384
    D1        3.14159   0.00000   0.00000   0.00000   0.00000   3.14159
         Item               Value     Threshold  Converged?
 Maximum Force            0.000000     0.000002     YES
 RMS     Force            0.000000     0.000001     YES
 Maximum Displacement     0.000000     0.000006     YES
 RMS     Displacement     0.000000     0.000004     YES
 Predicted change in Energy=-1.276663D-14
 Optimization completed.
    -- Stationary point found.
                           ----------------------------
                           !   Optimized Parameters   !
                           ! (Angstroms and Degrees)  !
 --------------------------                            --------------------------
 ! Name  Definition              Value          Derivative Info.                !
 --------------------------------------------------------------------------------
 ! R1    R(1,3)                  1.2289         -DE/DX =    0.0                 !
 ! R2    R(2,3)                  1.2289         -DE/DX =    0.0                 !
 ! R3    R(3,4)                  1.1198         -DE/DX =    0.0                 !
 ! A1    A(1,3,2)              130.3767         -DE/DX =    0.0                 !
 ! A2    A(1,3,4)              114.8116         -DE/DX =    0.0                 !
 ! A3    A(2,3,4)              114.8116         -DE/DX =    0.0                 !
 ! D1    D(1,3,4,2)            180.0            -DE/DX =    0.0                 !
 --------------------------------------------------------------------------------
 GradGradGradGradGradGradGradGradGradGradGradGradGradGradGradGradGradGrad

 Leave Link  103 at Sun Sep 28 21:03:36 2025, MaxMem=  1572864000 cpu:               0.2 elap:               0.1
 (Enter /software/sse/easybuild/prefix/software/Gaussian/16.C.01-avx2-nsc1/g16/l9999.exe)

 ----------------------------------------------------------------------

 Electric dipole moment (input orientation):
 (Debye = 10**-18 statcoulomb cm , SI units = C m)
                  (au)            (Debye)         (10**-30 SI)
   Tot        0.680955D+00      0.173082D+01      0.577338D+01
   x         -0.160152D-04     -0.407066D-04     -0.135783D-03
   y          0.680955D+00      0.173082D+01      0.577338D+01
   z          0.000000D+00      0.000000D+00      0.000000D+00

 Dipole polarizability, Alpha (input orientation).
 (esu units = cm**3 , SI units = C**2 m**2 J**-1)
 Alpha(0;0):
               (au)            (10**-24 esu)      (10**-40 SI)
   iso        0.265833D+02      0.393923D+01      0.438299D+01
   aniso      0.105880D+02      0.156898D+01      0.174573D+01
   xx         0.316997D+02      0.469741D+01      0.522658D+01
   yx         0.814539D-04      0.120702D-04      0.134299D-04
   yy         0.282364D+02      0.418420D+01      0.465555D+01
   zx         0.000000D+00      0.000000D+00      0.000000D+00
   zy         0.000000D+00      0.000000D+00      0.000000D+00
   zz         0.198137D+02      0.293609D+01      0.326684D+01

 First dipole hyperpolarizability, Beta (input orientation).
 ||, _|_  parallel and perpendicular components, (z) with respect to z axis,
 vector components x,y,z.  Values do not include the 1/n! factor of 1/2.
 (esu units = statvolt**-1 cm**4 , SI units = C**3 m**3 J**-2)
 Beta(0;0,0):
               (au)            (10**-30 esu)      (10**-50 SI)
   || (z)     0.000000D+00      0.000000D+00      0.000000D+00
   _|_(z)     0.000000D+00      0.000000D+00      0.000000D+00
   x         -0.110426D-01     -0.953995D-04     -0.354066D-04
   y          0.469524D+03      0.405632D+01      0.150546D+01
   z          0.000000D+00      0.000000D+00      0.000000D+00
   ||         0.939048D+02      0.811264D+00      0.301093D+00
   xxx       -0.280348D-02     -0.242199D-04     -0.898898D-05
   xxy        0.397340D+02      0.343271D+00      0.127402D+00
   yxy       -0.607608D-03     -0.524926D-05     -0.194821D-05
   yyy        0.105303D+03      0.909737D+00      0.337640D+00
   xxz        0.000000D+00      0.000000D+00      0.000000D+00
   yxz        0.000000D+00      0.000000D+00      0.000000D+00
   yyz        0.000000D+00      0.000000D+00      0.000000D+00
   zxz       -0.269777D-03     -0.233066D-05     -0.865003D-06
   zyz        0.114707D+02      0.990981D-01      0.367793D-01
   zzz        0.000000D+00      0.000000D+00      0.000000D+00

 ----------------------------------------------------------------------

 Dipole orientation:
     8         -2.10796210         -0.00004958         -0.31348635
     8          2.10793853          0.00004958         -0.31348635
     6         -0.00001178         -0.00000000          0.66104308
     1         -0.00001178         -0.00000000          2.77720643

 Electric dipole moment (dipole orientation):
 (Debye = 10**-18 statcoulomb cm , SI units = C m)
                  (au)            (Debye)         (10**-30 SI)
   Tot        0.680955D+00      0.173082D+01      0.577338D+01
   x          0.000000D+00      0.000000D+00      0.000000D+00
   y          0.000000D+00      0.000000D+00      0.000000D+00
   z          0.680955D+00      0.173082D+01      0.577338D+01

 Dipole polarizability, Alpha (dipole orientation).
 (esu units = cm**3 , SI units = C**2 m**2 J**-1)
 Alpha(0;0):
               (au)            (10**-24 esu)      (10**-40 SI)
   iso        0.265833D+02      0.393923D+01      0.438299D+01
   aniso      0.105880D+02      0.156898D+01      0.174573D+01
   xx         0.316997D+02      0.469741D+01      0.522658D+01
   yx         0.279544D-03      0.414241D-04      0.460906D-04
   yy         0.198137D+02      0.293609D+01      0.326684D+01
   zx         0.000000D+00      0.000000D+00      0.000000D+00
   zy         0.000000D+00      0.000000D+00      0.000000D+00
   zz         0.282364D+02      0.418420D+01      0.465555D+01

 First dipole hyperpolarizability, Beta (dipole orientation).
 ||, _|_  parallel and perpendicular components, (z) with respect to z axis,
 vector components x,y,z.  Values do not include the 1/n! factor of 1/2.
 (esu units = statvolt**-1 cm**4 , SI units = C**3 m**3 J**-2)
 Beta(0;0,0):
               (au)            (10**-30 esu)      (10**-50 SI)
   || (z)     0.939048D+02      0.811264D+00      0.301093D+00
   _|_(z)     0.313016D+02      0.270421D+00      0.100364D+00
   x          0.000000D+00      0.000000D+00      0.000000D+00
   y          0.000000D+00      0.000000D+00      0.000000D+00
   z          0.469524D+03      0.405632D+01      0.150546D+01
   ||         0.939048D+02      0.811264D+00      0.301093D+00
   xxx        0.000000D+00      0.000000D+00      0.000000D+00
   xxy        0.000000D+00      0.000000D+00      0.000000D+00
   yxy        0.000000D+00      0.000000D+00      0.000000D+00
   yyy        0.000000D+00      0.000000D+00      0.000000D+00
   xxz        0.397340D+02      0.343271D+00      0.127402D+00
   yxz        0.664717D-03      0.574264D-05      0.213132D-05
   yyz        0.114707D+02      0.990981D-01      0.367793D-01
   zxz        0.000000D+00      0.000000D+00      0.000000D+00
   zyz        0.000000D+00      0.000000D+00      0.000000D+00
   zzz        0.105303D+03      0.909737D+00      0.337640D+00

 ----------------------------------------------------------------------

 Test job not archived.
 1\1\NSC-N341\Freq\RHF\Aug-CC-pVTZ\C1H1O2(1-)\X_DAVVA\28-Sep-2025\0\\#P
  Geom=AllCheck Guess=TCheck SCRF=Check Test GenChk RHF/Aug-CC-pVTZ Fre
 q\\formate\\-1,1\O,-1.1154816016,-0.1659160649,0.\O,1.1154769345,-0.16
 58635956,0.\C,-0.0000144621,0.3498089338,0.\H,-0.000040799,1.469634350
 4,0.\\Version=ES64L-G16RevC.01\State=1-A1\HF=-188.2760204\RMSD=6.931e-
 10\RMSF=2.868e-08\ZeroPoint=0.0218898\Thermal=0.0248225\ETot=-188.2511
 979\HTot=-188.2502537\GTot=-188.2772138\Dipole=-0.000016,0.6809552,0.\
 DipoleDeriv=-1.8930784,-0.2987098,0.,-0.5711206,-0.9873954,0.,0.,0.,-0
 .6173562,-1.8931194,0.2986672,0.,0.571078,-0.9873545,0.,0.,0.,-0.61735
 62,2.793372,0.0000279,0.,0.0000281,1.5983188,0.,0.,0.,0.2046494,-0.007
 1742,0.0000145,0.,0.0000144,-0.6235687,0.,0.,0.,0.0300629\Polar=31.699
 7151,0.0000815,28.2363512,0.,0.,19.8137094\PolarDeriv=-9.022758,-1.607
 7212,1.9431589,0.,0.,-2.7483455,-3.5525559,-2.0703351,2.3490293,0.,0.,
 -0.7522196,0.,0.,0.,-2.8192845,-1.7811519,0.,9.0230763,-1.6073028,-1.9
 434206,0.,0.,2.7483809,-3.5523263,2.0699819,2.3491326,0.,0.,-0.7520903
 ,0.,0.,0.,2.8193683,-1.7810193,0.,-0.0002476,2.2079735,0.0005988,0.,0.
 ,0.0000235,6.3087943,0.0006939,-20.9915827,0.,0.,-0.8305561,0.,0.,0.,-
 0.0000286,1.2224673,0.,-0.0000657,1.0070507,-0.0003357,0.,0.,-0.000054
 6,0.7960835,-0.0003403,16.2934197,0.,0.,2.3348623,0.,0.,0.,-0.0000546,
 2.3397045,0.\HyperPolar=-0.0028035,39.7340396,-0.0006076,105.3031565,0
 .,0.,0.,-0.0002698,11.4707257,0.\Quadrupole=-4.8458252,1.8732083,2.972
 6169,-0.000158,0.,0.\PG=C02V [C2(C1H1),SGV(O2)]\NImag=0\\0.64472840,0.
 24576529,0.22063781,0.,0.,0.03224870,-0.13923518,0.00115572,0.,0.64475
 151,-0.00116505,0.05911872,0.,-0.24574534,0.22061469,0.,0.,0.03224871,
 0.,0.,0.03224870,-0.49233130,-0.19974977,0.,-0.49235072,0.19973804,0.,
 1.04020761,-0.21238654,-0.24226886,0.,0.21237478,-0.24224948,0.,0.0000
 0816,0.69138604,0.,0.,-0.09419958,0.,0.,-0.09419957,0.,0.,0.27516018,-
 0.01316190,-0.04717123,0.,-0.01316564,0.04717237,0.,-0.05552560,0.0000
 0356,0.,0.08185313,-0.03221372,-0.03748768,0.,0.03221486,-0.03748395,0
 .,0.00000357,-0.20686766,0.,-0.00000471,0.28183928,0.,0.,0.02970218,0.
 ,0.,0.02970218,0.,0.,-0.08676105,0.,0.,0.02735669\\0.00000002,0.000000
 05,0.,-0.00000002,0.00000005,0.,0.,-0.00000003,0.,0.,-0.00000006,0.\\\
 @


 SCIENCE AND PEACE WILL TRIUMPH OVER IGNORANCE AND WAR

                          -- PASTEUR
 Job cpu time:       0 days  0 hours  1 minutes 53.5 seconds.
 Elapsed time:       0 days  0 hours  0 minutes 14.9 seconds.
 File lengths (MBytes):  RWF=     20 Int=      0 D2E=      0 Chk=      8 Scr=      1
 Normal termination of Gaussian 16 at Sun Sep 28 21:03:36 2025.
