 Entering Gaussian System, Link 0=/software/sse/easybuild/prefix/software/Gaussian/16.C.01-avx2-nsc1/g16/g16.orig
 Input=formate.wrap
 Output=formate.log
 Initial command:
 /software/sse/easybuild/prefix/software/Gaussian/16.C.01-avx2-nsc1/g16/l1.exe "/scratch/local/Gau-1525269.inp" -scrdir="/scratch/local/"
 Entering Link 1 = /software/sse/easybuild/prefix/software/Gaussian/16.C.01-avx2-nsc1/g16/l1.exe PID=   1525270.
  
 Copyright (c) 1988-2019, Gaussian, Inc.  All Rights Reserved.
  
 This is part of the Gaussian(R) 16 program.  It is based on
 the Gaussian(R) 09 system (copyright 2009, Gaussian, Inc.),
 the Gaussian(R) 03 system (copyright 2003, Gaussian, Inc.),
 the Gaussian(R) 98 system (copyright 1998, Gaussian, Inc.),
 the Gaussian(R) 94 system (copyright 1995, Gaussian, Inc.),
 the Gaussian 92(TM) system (copyright 1992, Gaussian, Inc.),
 the Gaussian 90(TM) system (copyright 1990, Gaussian, Inc.),
 the Gaussian 88(TM) system (copyright 1988, Gaussian, Inc.),
 the Gaussian 86(TM) system (copyright 1986, Carnegie Mellon
 University), and the Gaussian 82(TM) system (copyright 1983,
 Carnegie Mellon University). Gaussian is a federally registered
 trademark of Gaussian, Inc.
  
 This software contains proprietary and confidential information,
 including trade secrets, belonging to Gaussian, Inc.
  
 This software is provided under written license and may be
 used, copied, transmitted, or stored only in accord with that
 written license.
  
 The following legend is applicable only to US Government
 contracts under FAR:
  
                    RESTRICTED RIGHTS LEGEND
  
 Use, reproduction and disclosure by the US Government is
 subject to restrictions as set forth in subparagraphs (a)
 and (c) of the Commercial Computer Software - Restricted
 Rights clause in FAR 52.227-19.
  
 Gaussian, Inc.
 340 Quinnipiac St., Bldg. 40, Wallingford CT 06492
  
  
 ---------------------------------------------------------------
 Warning -- This program may not be used in any manner that
 competes with the business of Gaussian, Inc. or will provide
 assistance to any competitor of Gaussian, Inc.  The licensee
 of this program is prohibited from giving any competitor of
 Gaussian, Inc. access to this program.  By using this program,
 the user acknowledges that Gaussian, Inc. is engaged in the
 business of creating and licensing software in the field of
 computational chemistry and represents and warrants to the
 licensee that it is not a competitor of Gaussian, Inc. and that
 it will not use this program in any manner prohibited above.
 ---------------------------------------------------------------
  

 Cite this work as:
 Gaussian 16, Revision C.01,
 M. J. Frisch, G. W. Trucks, H. B. Schlegel, G. E. Scuseria, 
 M. A. Robb, J. R. Cheeseman, G. Scalmani, V. Barone, 
 G. A. Petersson, H. Nakatsuji, X. Li, M. Caricato, A. V. Marenich, 
 J. Bloino, B. G. Janesko, R. Gomperts, B. Mennucci, H. P. Hratchian, 
 J. V. Ortiz, A. F. Izmaylov, J. L. Sonnenberg, D. Williams-Young, 
 F. Ding, F. Lipparini, F. Egidi, J. Goings, B. Peng, A. Petrone, 
 T. Henderson, D. Ranasinghe, V. G. Zakrzewski, J. Gao, N. Rega, 
 G. Zheng, W. Liang, M. Hada, M. Ehara, K. Toyota, R. Fukuda, 
 J. Hasegawa, M. Ishida, T. Nakajima, Y. Honda, O. Kitao, H. Nakai, 
 T. Vreven, K. Throssell, J. A. Montgomery, Jr., J. E. Peralta, 
 F. Ogliaro, M. J. Bearpark, J. J. Heyd, E. N. Brothers, K. N. Kudin, 
 V. N. Staroverov, T. A. Keith, R. Kobayashi, J. Normand, 
 K. Raghavachari, A. P. Rendell, J. C. Burant, S. S. Iyengar, 
 J. Tomasi, M. Cossi, J. M. Millam, M. Klene, C. Adamo, R. Cammi, 
 J. W. Ochterski, R. L. Martin, K. Morokuma, O. Farkas, 
 J. B. Foresman, and D. J. Fox, Gaussian, Inc., Wallingford CT, 2019.
 
 ******************************************
 Gaussian 16:  ES64L-G16RevC.01  3-Jul-2019
                30-Sep-2025 
 ******************************************
 %mem=12000MB
 %nprocshared=16
 Will use up to   16 processors via shared memory.
 %mem=32Gb
 %chk=formate.chk
 ----------------------------------------------------------------------
 #P HF/aug-cc-pvtz Opt=tight Pop=(MK,Hirshfeld) iop(6/33=2) iop(6/42=6)
  maxdisk=128GB
 ----------------------------------------------------------------------
 1/7=10,18=20,19=15,38=1/1,3;
 2/9=110,12=2,17=6,18=5,40=1/2;
 3/5=16,6=1,7=10,11=9,25=1,30=1,71=1/1,2,3;
 4//1;
 5/5=2,38=5/2;
 6/7=2,8=2,9=2,10=2,15=8,20=1,28=1,33=2,42=6,79=1/1,2;
 7//1,2,3,16;
 1/7=10,18=20,19=15/3(2);
 2/9=110/2;
 99//99;
 2/9=110/2;
 3/5=16,6=1,7=10,11=9,25=1,30=1,71=1/1,2,3;
 4/5=5,16=3,69=1/1;
 5/5=2,38=5/2;
 7//1,2,3,16;
 1/7=10,18=20,19=15/3(-5);
 2/9=110/2;
 6/7=2,8=2,9=2,10=2,15=8,19=2,20=1,28=1,33=2,42=6,79=1/1,2;
 99/9=1/99;
 Leave Link    1 at Tue Sep 30 16:58:49 2025, MaxMem=  4294967296 cpu:               1.0 elap:               0.1
 (Enter /software/sse/easybuild/prefix/software/Gaussian/16.C.01-avx2-nsc1/g16/l101.exe)
 -------
 formate
 -------
 Symbolic Z-matrix:
 Charge = -1 Multiplicity = 1
 O                     0.        1.11548  -0.20564 
 O                     0.       -1.11548  -0.20564 
 C                     0.        0.        0.31006 
 H                     0.        0.        1.42988 
 
 ITRead=  0  0  0  0
 MicOpt= -1 -1 -1 -1
 NAtoms=      4 NQM=        4 NQMF=       0 NMMI=      0 NMMIF=      0
                NMic=       0 NMicF=      0.
                    Isotopes and Nuclear Properties:
 (Nuclear quadrupole moments (NQMom) in fm**2, nuclear magnetic moments (NMagM)
  in nuclear magnetons)

  Atom         1           2           3           4
 IAtWgt=          16          16          12           1
 AtmWgt=  15.9949146  15.9949146  12.0000000   1.0078250
 NucSpn=           0           0           0           1
 AtZEff=  -0.0000000  -0.0000000  -0.0000000  -0.0000000
 NQMom=    0.0000000   0.0000000   0.0000000   0.0000000
 NMagM=    0.0000000   0.0000000   0.0000000   2.7928460
 AtZNuc=   8.0000000   8.0000000   6.0000000   1.0000000
 Leave Link  101 at Tue Sep 30 16:58:50 2025, MaxMem=  4294967296 cpu:               5.2 elap:               0.3
 (Enter /software/sse/easybuild/prefix/software/Gaussian/16.C.01-avx2-nsc1/g16/l103.exe)

 GradGradGradGradGradGradGradGradGradGradGradGradGradGradGradGradGradGrad
 Berny optimization.
 Initialization pass.
                           ----------------------------
                           !    Initial Parameters    !
                           ! (Angstroms and Degrees)  !
 --------------------------                            --------------------------
 ! Name  Definition              Value          Derivative Info.                !
 --------------------------------------------------------------------------------
 ! R1    R(1,3)                  1.2289         estimate D2E/DX2                !
 ! R2    R(2,3)                  1.2289         estimate D2E/DX2                !
 ! R3    R(3,4)                  1.1198         estimate D2E/DX2                !
 ! A1    A(1,3,2)              130.3766         estimate D2E/DX2                !
 ! A2    A(1,3,4)              114.8117         estimate D2E/DX2                !
 ! A3    A(2,3,4)              114.8117         estimate D2E/DX2                !
 ! D1    D(1,3,4,2)            180.0            estimate D2E/DX2                !
 --------------------------------------------------------------------------------
 Trust Radius=3.00D-01 FncErr=1.00D-07 GrdErr=1.00D-07 EigMax=2.50D+02 EigMin=1.00D-04
 Number of steps in this run=     20 maximum allowed number of steps=    100.
 GradGradGradGradGradGradGradGradGradGradGradGradGradGradGradGradGradGrad

 Leave Link  103 at Tue Sep 30 16:58:50 2025, MaxMem=  4294967296 cpu:               0.2 elap:               0.0
 (Enter /software/sse/easybuild/prefix/software/Gaussian/16.C.01-avx2-nsc1/g16/l202.exe)
                          Input orientation:                          
 ---------------------------------------------------------------------
 Center     Atomic      Atomic             Coordinates (Angstroms)
 Number     Number       Type             X           Y           Z
 ---------------------------------------------------------------------
      1          8           0        0.000000    1.115480   -0.205640
      2          8           0        0.000000   -1.115480   -0.205640
      3          6           0        0.000000    0.000000    0.310060
      4          1           0        0.000000    0.000000    1.429880
 ---------------------------------------------------------------------
                    Distance matrix (angstroms):
                    1          2          3          4
     1  O    0.000000
     2  O    2.230960   0.000000
     3  C    1.228919   1.228919   0.000000
     4  H    1.979702   1.979702   1.119820   0.000000
 Stoichiometry    CHO2(1-)
 Framework group  C2V[C2(CH),SGV(O2)]
 Deg. of freedom     3
 Full point group                 C2V     NOp   4
 Largest Abelian subgroup         C2V     NOp   4
 Largest concise Abelian subgroup C2      NOp   2
                         Standard orientation:                         
 ---------------------------------------------------------------------
 Center     Atomic      Atomic             Coordinates (Angstroms)
 Number     Number       Type             X           Y           Z
 ---------------------------------------------------------------------
      1          8           0        0.000000    1.115480   -0.205640
      2          8           0       -0.000000   -1.115480   -0.205640
      3          6           0        0.000000   -0.000000    0.310060
      4          1           0        0.000000   -0.000000    1.429880
 ---------------------------------------------------------------------
 Rotational constants (GHZ):         111.7505513          12.6964323          11.4011065
 Leave Link  202 at Tue Sep 30 16:58:50 2025, MaxMem=  4294967296 cpu:               0.1 elap:               0.0
 (Enter /software/sse/easybuild/prefix/software/Gaussian/16.C.01-avx2-nsc1/g16/l301.exe)
 Standard basis: Aug-CC-pVTZ (5D, 7F)
 Ernie: Thresh=  0.10000D-02 Tol=  0.10000D-05 Strict=F.
 Ernie:  9 primitive shells out of 101 were deleted.
 There are    74 symmetry adapted cartesian basis functions of A1  symmetry.
 There are    25 symmetry adapted cartesian basis functions of A2  symmetry.
 There are    36 symmetry adapted cartesian basis functions of B1  symmetry.
 There are    55 symmetry adapted cartesian basis functions of B2  symmetry.
 There are    60 symmetry adapted basis functions of A1  symmetry.
 There are    23 symmetry adapted basis functions of A2  symmetry.
 There are    32 symmetry adapted basis functions of B1  symmetry.
 There are    46 symmetry adapted basis functions of B2  symmetry.
   161 basis functions,   243 primitive gaussians,   190 cartesian basis functions
    12 alpha electrons       12 beta electrons
       nuclear repulsion energy        63.6307329913 Hartrees.
 IExCor=    0 DFT=F Ex=HF Corr=None ExCW=0 ScaHFX=  1.000000
 ScaDFX=  1.000000  1.000000  1.000000  1.000000 ScalE2=  1.000000  1.000000
 IRadAn=      5 IRanWt=     -1 IRanGd=            0 ICorTp=0 IEmpDi=  4
 NAtoms=    4 NActive=    4 NUniq=    3 SFac= 1.78D+00 NAtFMM=   60 NAOKFM=F Big=F
 Integral buffers will be    131072 words long.
 Raffenetti 1 integral format.
 Two-electron integral symmetry is turned on.
 Leave Link  301 at Tue Sep 30 16:58:51 2025, MaxMem=  4294967296 cpu:               0.8 elap:               0.1
 (Enter /software/sse/easybuild/prefix/software/Gaussian/16.C.01-avx2-nsc1/g16/l302.exe)
 NPDir=0 NMtPBC=     1 NCelOv=     1 NCel=       1 NClECP=     1 NCelD=      1
         NCelK=      1 NCelE2=     1 NClLst=     1 CellRange=     0.0.
 One-electron integrals computed using PRISM.
 One-electron integral symmetry used in STVInt
 NBasis=   161 RedAO= T EigKep=  9.48D-05  NBF=    60    23    32    46
 NBsUse=   161 1.00D-06 EigRej= -1.00D+00 NBFU=    60    23    32    46
 Leave Link  302 at Tue Sep 30 16:58:51 2025, MaxMem=  4294967296 cpu:               1.9 elap:               0.1
 (Enter /software/sse/easybuild/prefix/software/Gaussian/16.C.01-avx2-nsc1/g16/l303.exe)
 DipDrv:  MaxL=1.
 Leave Link  303 at Tue Sep 30 16:58:52 2025, MaxMem=  4294967296 cpu:               0.4 elap:               0.0
 (Enter /software/sse/easybuild/prefix/software/Gaussian/16.C.01-avx2-nsc1/g16/l401.exe)
 ExpMin= 2.53D-02 ExpMax= 1.53D+04 ExpMxC= 5.22D+02 IAcc=3 IRadAn=         5 AccDes= 0.00D+00
 Harris functional with IExCor=  205 and IRadAn=       5 diagonalized for initial guess.
 HarFok:  IExCor=  205 AccDes= 0.00D+00 IRadAn=         5 IDoV= 1 UseB2=F ITyADJ=14
 ICtDFT=  3500011 ScaDFX=  1.000000  1.000000  1.000000  1.000000
 FoFCou: FMM=F IPFlag=           0 FMFlag=      100000 FMFlg1=           0
         NFxFlg=           0 DoJE=T BraDBF=F KetDBF=T FulRan=T
         wScrn=  0.000000 ICntrl=       500 IOpCl=  0 I1Cent=   200000004 NGrid=           0
         NMat0=    1 NMatS0=      1 NMatT0=    0 NMatD0=    1 NMtDS0=    0 NMtDT0=    0
 Petite list used in FoFCou.
 Harris En= -188.583950742697    
 JPrj=0 DoOrth=F DoCkMO=F.
 Initial guess orbital symmetries:
       Occupied  (A1) (B2) (A1) (A1) (B2) (A1) (A1) (B2) (B1) (A2)
                 (B2) (A1)
       Virtual   (B1) (A1) (A1) (B2) (B1) (A1) (A1) (B2) (A1) (A2)
                 (B1) (A1) (B2) (B2) (B1) (A1) (A1) (B2) (B1) (A1)
                 (A2) (A1) (A1) (B2) (B1) (B2) (A1) (B2) (A1) (A2)
                 (B2) (A1) (B1) (A2) (A1) (B1) (B1) (A1) (B2) (B2)
                 (A1) (B2) (B1) (A2) (A1) (A2) (A1) (B2) (A1) (B1)
                 (B2) (A1) (B1) (A1) (B2) (A2) (B2) (B1) (A1) (A2)
                 (A1) (A1) (B2) (B1) (B2) (A1) (B2) (A2) (A1) (B1)
                 (A2) (B1) (B1) (B2) (A1) (A1) (B2) (A1) (A2) (B2)
                 (B2) (A1) (A2) (B1) (B2) (A1) (B2) (A2) (B1) (A1)
                 (B2) (A1) (B1) (B1) (A1) (B2) (A1) (A2) (B1) (A1)
                 (B1) (B2) (A2) (A1) (A1) (B2) (A1) (A2) (A1) (B2)
                 (B1) (A1) (A2) (B2) (B1) (A1) (B1) (B2) (A1) (B2)
                 (B2) (A1) (A2) (B2) (B1) (A1) (A1) (B1) (A2) (B2)
                 (A1) (A2) (B1) (B2) (A1) (A2) (B2) (B1) (B1) (A2)
                 (B2) (A1) (B2) (A1) (A1) (B2) (B2) (A1) (A1)
 The electronic state of the initial guess is 1-A1.
 Leave Link  401 at Tue Sep 30 16:58:53 2025, MaxMem=  4294967296 cpu:               2.9 elap:               0.2
 (Enter /software/sse/easybuild/prefix/software/Gaussian/16.C.01-avx2-nsc1/g16/l502.exe)
 Keep R1 ints in memory in symmetry-blocked form, NReq=106592199.
 FoFCou: FMM=F IPFlag=           0 FMFlag=           0 FMFlg1=           0
         NFxFlg=           0 DoJE=F BraDBF=F KetDBF=F FulRan=T
         wScrn=  0.000000 ICntrl=       600 IOpCl=  0 I1Cent=           0 NGrid=           0
         NMat0=    1 NMatS0=  13041 NMatT0=    0 NMatD0=    1 NMtDS0=    0 NMtDT0=    0
 Petite list used in FoFCou.
 Closed shell SCF:
 Using DIIS extrapolation, IDIIS=  1040.
 NGot=  4294967296 LenX=  4273339532 LenY=  4273302991
 Requested convergence on RMS density matrix=1.00D-08 within 128 cycles.
 Requested convergence on MAX density matrix=1.00D-06.
 Requested convergence on             energy=1.00D-06.
 No special actions if energy rises.

 Cycle   1  Pass 1  IDiag  1:
 E= -188.086009819781    
 DIIS: error= 5.76D-02 at cycle   1 NSaved=   1.
 NSaved= 1 IEnMin= 1 EnMin= -188.086009819781     IErMin= 1 ErrMin= 5.76D-02
 ErrMax= 5.76D-02  0.00D+00 EMaxC= 1.00D-01 BMatC= 4.28D-01 BMatP= 4.28D-01
 IDIUse=3 WtCom= 4.24D-01 WtEn= 5.76D-01
 Coeff-Com:  0.100D+01
 Coeff-En:   0.100D+01
 Coeff:      0.100D+01
 Gap=     0.254 Goal=   None    Shift=    0.000
 GapD=    0.254 DampG=1.000 DampE=0.500 DampFc=0.5000 IDamp=-1.
 Damping current iteration by 5.00D-01
 RMSDP=2.40D-03 MaxDP=4.65D-02              OVMax= 1.55D-01

 Cycle   2  Pass 1  IDiag  1:
 E= -188.185789662120     Delta-E=       -0.099779842339 Rises=F Damp=T
 DIIS: error= 1.86D-02 at cycle   2 NSaved=   2.
 NSaved= 2 IEnMin= 2 EnMin= -188.185789662120     IErMin= 2 ErrMin= 1.86D-02
 ErrMax= 1.86D-02  0.00D+00 EMaxC= 1.00D-01 BMatC= 7.42D-02 BMatP= 4.28D-01
 IDIUse=3 WtCom= 8.14D-01 WtEn= 1.86D-01
 Coeff-Com: -0.443D+00 0.144D+01
 Coeff-En:   0.000D+00 0.100D+01
 Coeff:     -0.360D+00 0.136D+01
 Gap=     0.341 Goal=   None    Shift=    0.000
 RMSDP=7.97D-04 MaxDP=2.55D-02 DE=-9.98D-02 OVMax= 6.33D-02

 Cycle   3  Pass 1  IDiag  1:
 E= -188.274093402863     Delta-E=       -0.088303740742 Rises=F Damp=F
 DIIS: error= 6.14D-03 at cycle   3 NSaved=   3.
 NSaved= 3 IEnMin= 3 EnMin= -188.274093402863     IErMin= 3 ErrMin= 6.14D-03
 ErrMax= 6.14D-03  0.00D+00 EMaxC= 1.00D-01 BMatC= 3.01D-03 BMatP= 7.42D-02
 IDIUse=3 WtCom= 9.39D-01 WtEn= 6.14D-02
 Coeff-Com: -0.133D+00 0.221D+00 0.912D+00
 Coeff-En:   0.000D+00 0.000D+00 0.100D+01
 Coeff:     -0.125D+00 0.208D+00 0.917D+00
 Gap=     0.332 Goal=   None    Shift=    0.000
 RMSDP=1.70D-04 MaxDP=6.13D-03 DE=-8.83D-02 OVMax= 9.75D-03

 Cycle   4  Pass 1  IDiag  1:
 E= -188.275898537178     Delta-E=       -0.001805134316 Rises=F Damp=F
 DIIS: error= 1.25D-03 at cycle   4 NSaved=   4.
 NSaved= 4 IEnMin= 4 EnMin= -188.275898537178     IErMin= 4 ErrMin= 1.25D-03
 ErrMax= 1.25D-03  0.00D+00 EMaxC= 1.00D-01 BMatC= 1.02D-04 BMatP= 3.01D-03
 IDIUse=3 WtCom= 9.88D-01 WtEn= 1.25D-02
 Coeff-Com: -0.208D-01 0.260D-01 0.205D+00 0.790D+00
 Coeff-En:   0.000D+00 0.000D+00 0.000D+00 0.100D+01
 Coeff:     -0.205D-01 0.257D-01 0.203D+00 0.792D+00
 Gap=     0.329 Goal=   None    Shift=    0.000
 RMSDP=3.98D-05 MaxDP=9.98D-04 DE=-1.81D-03 OVMax= 4.22D-03

 Cycle   5  Pass 1  IDiag  1:
 E= -188.276005472812     Delta-E=       -0.000106935633 Rises=F Damp=F
 DIIS: error= 4.85D-04 at cycle   5 NSaved=   5.
 NSaved= 5 IEnMin= 5 EnMin= -188.276005472812     IErMin= 5 ErrMin= 4.85D-04
 ErrMax= 4.85D-04  0.00D+00 EMaxC= 1.00D-01 BMatC= 9.38D-06 BMatP= 1.02D-04
 IDIUse=3 WtCom= 9.95D-01 WtEn= 4.85D-03
 Coeff-Com:  0.122D-01-0.187D-01-0.110D+00-0.411D-01 0.116D+01
 Coeff-En:   0.000D+00 0.000D+00 0.000D+00 0.000D+00 0.100D+01
 Coeff:      0.121D-01-0.187D-01-0.109D+00-0.409D-01 0.116D+01
 Gap=     0.330 Goal=   None    Shift=    0.000
 RMSDP=2.11D-05 MaxDP=6.04D-04 DE=-1.07D-04 OVMax= 1.24D-03

 Cycle   6  Pass 1  IDiag  1:
 E= -188.276019437498     Delta-E=       -0.000013964687 Rises=F Damp=F
 DIIS: error= 8.37D-05 at cycle   6 NSaved=   6.
 NSaved= 6 IEnMin= 6 EnMin= -188.276019437498     IErMin= 6 ErrMin= 8.37D-05
 ErrMax= 8.37D-05  0.00D+00 EMaxC= 1.00D-01 BMatC= 3.84D-07 BMatP= 9.38D-06
 IDIUse=1 WtCom= 1.00D+00 WtEn= 0.00D+00
 Coeff-Com: -0.121D-02 0.226D-02 0.820D-02-0.158D-01-0.270D+00 0.128D+01
 Coeff:     -0.121D-02 0.226D-02 0.820D-02-0.158D-01-0.270D+00 0.128D+01
 Gap=     0.330 Goal=   None    Shift=    0.000
 RMSDP=5.25D-06 MaxDP=1.19D-04 DE=-1.40D-05 OVMax= 4.49D-04

 Cycle   7  Pass 1  IDiag  1:
 E= -188.276020362149     Delta-E=       -0.000000924651 Rises=F Damp=F
 DIIS: error= 1.42D-05 at cycle   7 NSaved=   7.
 NSaved= 7 IEnMin= 7 EnMin= -188.276020362149     IErMin= 7 ErrMin= 1.42D-05
 ErrMax= 1.42D-05  0.00D+00 EMaxC= 1.00D-01 BMatC= 1.70D-08 BMatP= 3.84D-07
 IDIUse=1 WtCom= 1.00D+00 WtEn= 0.00D+00
 Coeff-Com: -0.639D-03 0.982D-03 0.533D-02 0.533D-02-0.245D-01-0.200D+00
 Coeff-Com:  0.121D+01
 Coeff:     -0.639D-03 0.982D-03 0.533D-02 0.533D-02-0.245D-01-0.200D+00
 Coeff:      0.121D+01
 Gap=     0.330 Goal=   None    Shift=    0.000
 RMSDP=1.16D-06 MaxDP=2.79D-05 DE=-9.25D-07 OVMax= 1.12D-04

 Cycle   8  Pass 1  IDiag  1:
 E= -188.276020404921     Delta-E=       -0.000000042772 Rises=F Damp=F
 DIIS: error= 2.44D-06 at cycle   8 NSaved=   8.
 NSaved= 8 IEnMin= 8 EnMin= -188.276020404921     IErMin= 8 ErrMin= 2.44D-06
 ErrMax= 2.44D-06  0.00D+00 EMaxC= 1.00D-01 BMatC= 7.74D-10 BMatP= 1.70D-08
 IDIUse=1 WtCom= 1.00D+00 WtEn= 0.00D+00
 Coeff-Com:  0.129D-03-0.209D-03-0.118D-02 0.465D-04 0.171D-01-0.433D-01
 Coeff-Com: -0.136D+00 0.116D+01
 Coeff:      0.129D-03-0.209D-03-0.118D-02 0.465D-04 0.171D-01-0.433D-01
 Coeff:     -0.136D+00 0.116D+01
 Gap=     0.330 Goal=   None    Shift=    0.000
 RMSDP=2.51D-07 MaxDP=4.52D-06 DE=-4.28D-08 OVMax= 2.66D-05

 Cycle   9  Pass 1  IDiag  1:
 E= -188.276020406997     Delta-E=       -0.000000002076 Rises=F Damp=F
 DIIS: error= 6.96D-07 at cycle   9 NSaved=   9.
 NSaved= 9 IEnMin= 9 EnMin= -188.276020406997     IErMin= 9 ErrMin= 6.96D-07
 ErrMax= 6.96D-07  0.00D+00 EMaxC= 1.00D-01 BMatC= 5.04D-11 BMatP= 7.74D-10
 IDIUse=1 WtCom= 1.00D+00 WtEn= 0.00D+00
 Coeff-Com:  0.212D-04-0.308D-04-0.152D-03-0.163D-03-0.161D-02 0.199D-01
 Coeff-Com: -0.387D-01-0.283D+00 0.130D+01
 Coeff:      0.212D-04-0.308D-04-0.152D-03-0.163D-03-0.161D-02 0.199D-01
 Coeff:     -0.387D-01-0.283D+00 0.130D+01
 Gap=     0.330 Goal=   None    Shift=    0.000
 RMSDP=7.98D-08 MaxDP=1.55D-06 DE=-2.08D-09 OVMax= 8.44D-06

 Cycle  10  Pass 1  IDiag  1:
 E= -188.276020407159     Delta-E=       -0.000000000162 Rises=F Damp=F
 DIIS: error= 1.62D-07 at cycle  10 NSaved=  10.
 NSaved=10 IEnMin=10 EnMin= -188.276020407159     IErMin=10 ErrMin= 1.62D-07
 ErrMax= 1.62D-07  0.00D+00 EMaxC= 1.00D-01 BMatC= 2.02D-12 BMatP= 5.04D-11
 IDIUse=1 WtCom= 1.00D+00 WtEn= 0.00D+00
 Coeff-Com: -0.893D-05 0.141D-04 0.694D-04 0.621D-04-0.781D-04-0.427D-02
 Coeff-Com:  0.158D-01 0.307D-01-0.356D+00 0.131D+01
 Coeff:     -0.893D-05 0.141D-04 0.694D-04 0.621D-04-0.781D-04-0.427D-02
 Coeff:      0.158D-01 0.307D-01-0.356D+00 0.131D+01
 Gap=     0.330 Goal=   None    Shift=    0.000
 RMSDP=2.70D-08 MaxDP=6.31D-07 DE=-1.62D-10 OVMax= 1.88D-06

 Cycle  11  Pass 1  IDiag  1:
 E= -188.276020407166     Delta-E=       -0.000000000007 Rises=F Damp=F
 DIIS: error= 3.19D-08 at cycle  11 NSaved=  11.
 NSaved=11 IEnMin=11 EnMin= -188.276020407166     IErMin=11 ErrMin= 3.19D-08
 ErrMax= 3.19D-08  0.00D+00 EMaxC= 1.00D-01 BMatC= 9.59D-14 BMatP= 2.02D-12
 IDIUse=1 WtCom= 1.00D+00 WtEn= 0.00D+00
 Coeff-Com:  0.221D-05-0.360D-05-0.184D-04-0.130D-04 0.928D-04 0.667D-03
 Coeff-Com: -0.395D-02 0.218D-02 0.615D-01-0.449D+00 0.139D+01
 Coeff:      0.221D-05-0.360D-05-0.184D-04-0.130D-04 0.928D-04 0.667D-03
 Coeff:     -0.395D-02 0.218D-02 0.615D-01-0.449D+00 0.139D+01
 Gap=     0.330 Goal=   None    Shift=    0.000
 RMSDP=6.84D-09 MaxDP=1.29D-07 DE=-7.02D-12 OVMax= 3.89D-07

 SCF Done:  E(RHF) =  -188.276020407     A.U. after   11 cycles
            NFock= 11  Conv=0.68D-08     -V/T= 2.0005
 KE= 1.881764496217D+02 PE=-5.795359646926D+02 EE= 1.394527616725D+02
 Leave Link  502 at Tue Sep 30 16:58:54 2025, MaxMem=  4294967296 cpu:              15.1 elap:               1.0
 (Enter /software/sse/easybuild/prefix/software/Gaussian/16.C.01-avx2-nsc1/g16/l601.exe)
 Copying SCF densities to generalized density rwf, IOpCl= 0 IROHF=0.
 SCF density gives NOpUse=  4 NOpAll=  4.

 **********************************************************************

            Population analysis using the SCF Density.

 **********************************************************************

 Orbital symmetries:
 BldTbl:  Degeneracy threshold= 1.00D-02
       Occupied  (B2) (A1) (A1) (A1) (B2) (A1) (A1) (B2) (B1) (B2)
                 (A2) (A1)
       Virtual   (A1) (B2) (B1) (A1) (A1) (B2) (A1) (A2) (B1) (A1)
                 (B2) (A1) (B1) (B2) (B1) (A1) (B2) (A1) (A1) (B1)
                 (A2) (B2) (A1) (B1) (A1) (B2) (A1) (B2) (A1) (A2)
                 (A1) (B2) (B1) (A1) (A2) (B1) (B2) (A1) (B1) (B2)
                 (A1) (A2) (A1) (B1) (B2) (A1) (A2) (B2) (A1) (B1)
                 (B2) (B1) (A1) (B2) (A1) (A2) (B1) (A1) (B2) (A2)
                 (A1) (A1) (B2) (B1) (A1) (B2) (A2) (B2) (A1) (B1)
                 (A2) (B1) (B1) (A1) (B2) (A1) (A1) (B2) (A2) (B2)
                 (B2) (A1) (A2) (B1) (B2) (A1) (A2) (B2) (B1) (A1)
                 (B2) (B1) (A1) (B1) (A1) (A2) (A1) (B2) (B1) (A1)
                 (A1) (B1) (B2) (A1) (A2) (B2) (A1) (A2) (B2) (A1)
                 (B1) (B2) (A1) (B1) (A2) (B1) (A1) (B2) (A1) (B2)
                 (B2) (A1) (A2) (B2) (A1) (B1) (A1) (A2) (B1) (B2)
                 (A1) (B1) (A2) (B2) (A2) (A1) (B2) (B1) (B1) (A1)
                 (A2) (B2) (B2) (A1) (A1) (B2) (B2) (A1) (A1)
 The electronic state is 1-A1.
 Alpha  occ. eigenvalues --  -20.28273 -20.28269 -11.11225  -1.17014  -1.07005
 Alpha  occ. eigenvalues --   -0.55215  -0.43452  -0.39188  -0.35017  -0.20774
 Alpha  occ. eigenvalues --   -0.18754  -0.18514
 Alpha virt. eigenvalues --    0.14455   0.21294   0.21350   0.21670   0.28189
 Alpha virt. eigenvalues --    0.31771   0.32769   0.33769   0.36797   0.37102
 Alpha virt. eigenvalues --    0.39188   0.42003   0.42586   0.45840   0.50157
 Alpha virt. eigenvalues --    0.50249   0.51765   0.54158   0.58528   0.59365
 Alpha virt. eigenvalues --    0.62048   0.69987   0.70078   0.72236   0.78014
 Alpha virt. eigenvalues --    0.82781   0.89021   0.93087   0.94054   0.96085
 Alpha virt. eigenvalues --    1.01465   1.01927   1.05025   1.05513   1.07114
 Alpha virt. eigenvalues --    1.09928   1.12475   1.12893   1.14110   1.15993
 Alpha virt. eigenvalues --    1.21600   1.22685   1.23082   1.26564   1.28292
 Alpha virt. eigenvalues --    1.29036   1.32253   1.39144   1.43703   1.44479
 Alpha virt. eigenvalues --    1.45439   1.55881   1.57093   1.64459   1.65582
 Alpha virt. eigenvalues --    1.71142   1.78201   1.79171   1.82338   1.90077
 Alpha virt. eigenvalues --    1.93340   2.00945   2.08691   2.15279   2.23766
 Alpha virt. eigenvalues --    2.25779   2.42409   2.42845   2.46012   2.51634
 Alpha virt. eigenvalues --    2.58750   2.62209   2.64339   2.65368   2.65946
 Alpha virt. eigenvalues --    2.71202   2.74663   2.74851   2.83231   2.83353
 Alpha virt. eigenvalues --    2.87914   2.88343   2.91110   2.93310   2.95416
 Alpha virt. eigenvalues --    3.11573   3.13930   3.15275   3.16619   3.27654
 Alpha virt. eigenvalues --    3.30810   3.42331   3.42353   3.57614   3.66008
 Alpha virt. eigenvalues --    3.80849   3.82332   3.82779   4.08894   4.14458
 Alpha virt. eigenvalues --    4.23855   4.28297   4.30888   4.32598   4.34559
 Alpha virt. eigenvalues --    4.53448   4.56860   4.57314   4.82540   4.86771
 Alpha virt. eigenvalues --    4.88748   5.24143   5.28523   5.30400   5.35924
 Alpha virt. eigenvalues --    5.46860   5.49666   5.50520   5.87947   6.17257
 Alpha virt. eigenvalues --    6.52978   6.56369   6.85001   6.85986   6.87982
 Alpha virt. eigenvalues --    6.88168   7.10509   7.10917   7.11840   7.21940
 Alpha virt. eigenvalues --    7.34102   7.35196   7.42427   7.43929   7.47228
 Alpha virt. eigenvalues --    7.49392   7.53549   7.57129   7.80874   7.83185
 Alpha virt. eigenvalues --    7.85739   7.87814   7.94428   8.06681   8.21952
 Alpha virt. eigenvalues --    8.34281  14.15723  16.07282  16.87591
          Condensed to atoms (all electrons):
               1          2          3          4
     1  O    8.429764  -0.125388   0.424295  -0.045362
     2  O   -0.125388   8.429764   0.424295  -0.045362
     3  C    0.424295   0.424295   4.894899   0.271382
     4  H   -0.045362  -0.045362   0.271382   0.437854
 Mulliken charges:
               1
     1  O   -0.683309
     2  O   -0.683309
     3  C   -0.014870
     4  H    0.381488
 Sum of Mulliken charges =  -1.00000
 Mulliken charges with hydrogens summed into heavy atoms:
               1
     1  O   -0.683309
     2  O   -0.683309
     3  C    0.366618
 DipInt: DoE/N= T F RetVal/Mat= T F Init=T NMatP=  1 IDeriv=0 Min/MaxMlt=  0  4
 Entering OneElI...
 OneElI was handed  4294872655 working-precision words.
 Multipole integrals L=0 to 4 MinM= 0 MaxM= 0.
 Requested accuracy = 0.1000D-12
 ShPair: Thresh= 1.00D-13 NBox=     0 BxSize= 0.00D+00 RnKept= 4.22D+00
         NSMCal=                 1326 NSMKep=                1325
 PrmmSu-InSpLW:  IPartL=    0 NPrtUS=    1 NPrtUL=    1 DoSpLW=F IThBeg=    0 IThEnd=    0 NThAct=    1.
 PrSmSu:  IncTry=   512 NBBP=           1325 NTPThr=   100 NPartT=    1 Incr=          13 LDynOK=F GPUOK=F.
 PrsmSu:  NPrtUS=   1 ThrOK=F IAlg=2 LenDen=           0 ISkipM=0 DoSpLW=F IThBeg=    0 IThEnd=    0.
 Prism:   IPart=     0 DynPar=F LinDyn=F Incr=          13.
 PRISM was handed  4294757923 working-precision words and  1325 shell-pairs
 IPart=  0 NShTot=        1325 NBatch=          49 AvBLen=        27.0
 PrsmSu-ThDecC:  IPartSL=    0    0 NPrtUSL=    1    1 IThBeg=    0 IThEnd=    0 CPU=   -1 GPU=   -1 NThAct=    1.
 PrSmSu:  NxtVal=             14.
 Electronic moments (au):
        -24.00000000          0.00000000         -0.00000000          0.68096490
        -13.94322365        -92.85705147        -26.81992082         -0.00000000
         -0.00000000         -0.00000000          0.00000000          0.00000000
        -21.91878897          0.00000000          0.00000000         -0.38928314
          0.00000000         -0.00000000         28.93120326          0.00000000
        -51.63110116       -668.35481867       -168.84424398         -0.00000000
         -0.00000000         -0.00000000         -0.00000000         -0.00000000
          0.00000000        -63.72194059        -26.99404385        -83.54958063
         -0.00000000         -0.00000000         -0.00000000
 Electronic spatial extent (au):  <R**2>=            133.6202
 DipInt: DoE/N= F T RetVal/Mat= T F Init=T NMatP=  1 IDeriv=0 Min/MaxMlt=  0  4
 Nuclear    moments (au):
         23.00000000         -0.00000000         -0.00000000          0.00000000
          0.00000000         71.09536574         11.77731819          0.00000000
          0.00000000         -0.00000000         -0.00000000         -0.00000000
         19.99655453         -0.00000000         -0.00000000         -0.00000000
         -0.00000000         -0.00000000        -27.62789234         -0.00000000
          0.00000000        315.90943935         54.38023344          0.00000000
          0.00000000          0.00000000         -0.00000000          0.00000000
         -0.00000000          0.00000000          0.00000000         10.73628959
          0.00000000          0.00000000          0.00000000
 Total      moments (au):
         -1.00000000          0.00000000         -0.00000000          0.68096490
        -13.94322365        -21.76168573        -15.04260262         -0.00000000
         -0.00000000         -0.00000000          0.00000000          0.00000000
         -1.92223445          0.00000000          0.00000000         -0.38928314
          0.00000000         -0.00000000          1.30331092          0.00000000
        -51.63110116       -352.44537932       -114.46401054         -0.00000000
         -0.00000000         -0.00000000         -0.00000000         -0.00000000
          0.00000000        -63.72194059        -26.99404385        -72.81329104
         -0.00000000         -0.00000000         -0.00000000
 Traceless Quadrup. (au):
          2.97261368         -4.84584839          1.87323471         -0.00000000
         -0.00000000         -0.00000000
 Charge=             -1.0000 electrons
 Dipole moment (field-independent basis, Debye):
    X=              0.0000    Y=             -0.0000    Z=              1.7308  Tot=              1.7308
 Quadrupole moment (field-independent basis, Debye-Ang):
   XX=            -18.7541   YY=            -29.2702   ZZ=            -20.2328
   XY=             -0.0000   XZ=             -0.0000   YZ=             -0.0000
 Traceless Quadrupole moment (field-independent basis, Debye-Ang):
   XX=              3.9983   YY=             -6.5178   ZZ=              2.5196
   XY=             -0.0000   XZ=             -0.0000   YZ=             -0.0000
 Octapole moment (field-independent basis, Debye-Ang**2):
  XXX=              0.0000  YYY=              0.0000  ZZZ=             -1.3682  XYY=              0.0000
  XXY=              0.0000  XXZ=             -0.2771  XZZ=              0.0000  YZZ=             -0.0000
  YYZ=              0.9276  XYZ=              0.0000
 Hexadecapole moment (field-independent basis, Debye-Ang**3):
 XXXX=            -19.4467 YYYY=           -132.7478 ZZZZ=            -43.1126 XXXY=             -0.0000
 XXXZ=             -0.0000 YYYX=             -0.0000 YYYZ=             -0.0000 ZZZX=             -0.0000
 ZZZY=              0.0000 XXYY=            -24.0007 XXZZ=            -10.1673 YYZZ=            -27.4250
 XXYZ=             -0.0000 YYXZ=             -0.0000 ZZXY=             -0.0000
 N-N= 6.363073299126D+01 E-N=-5.795359640895D+02  KE= 1.881764496217D+02
 Symmetry A1   KE= 1.070824669197D+02
 Symmetry A2   KE= 4.335265903295D+00
 Symmetry B1   KE= 3.321376136297D+00
 Symmetry B2   KE= 7.343734066237D+01
 SetAtRh:  ITypeU=  23 NETotI=      -1 ICharg=  0 NETot=      23.
 StAtR1:  I=    1 I1=    1 IA=  8 C=   8.0 OKShel=TTT
                                                  SSP
                                                  224
 StAtR1:  I=    2 I1=    2 IA=  8 C=   8.0 OKShel=TTT
                                                  SSP
                                                  224
 StAtR1:  I=    3 I1=    3 IA=  6 C=   6.0 OKShel=TTT
                                                  SSP
                                                  222
 StAtR1:  I=    4 I1=    4 IA=  1 C=   1.0 OKShel=T
                                                  S
                                                  1
          I=    1 IA=  8 I1=    1 NAtG=23 NE=   8.000 C=   8.000 Err=-3.68D-11
          I=    2 IA=  8 I1=    2 NAtG=23 NE=   8.000 C=   8.000 Err=-3.68D-11
          I=    3 IA=  6 I1=    3 NAtG=23 NE=   6.000 C=   6.000 Err= 1.75D-11
          I=    4 IA=  1 I1=    4 NAtG=20 NE=   1.000 C=   1.000 Err= 2.80D-12
 Pruned (  99, 590) grid will be used in numerical quadrature.
 IPart=  0 IRanGd=          0 ScrnBf=T ScrnGd=T RCrit=4.00D+00 DoMicB=T.
 CutRad = 1000.00    CtRdIn =    0.00    XCrit =  15.00   ICut = 0
 Pruned (  99, 590) grid will be used in numerical quadrature.
 IPart=  0 Atom number   1 atomic number  8 has       23718 grid points.
 Pruned (  99, 590) grid will be used in numerical quadrature.
 IPart=  0 Atom   1 batch    1 overlaps    4 atoms,    50 shells and     4 DB shells.   NGrid=      2408
 Pruned (  99, 590) grid will be used in numerical quadrature.
 IPart=  1 IRanGd=          0 ScrnBf=T ScrnGd=T RCrit=4.00D+00 DoMicB=T.
 Pruned (  99, 590) grid will be used in numerical quadrature.
 IPart=  3 IRanGd=          0 ScrnBf=T ScrnGd=T RCrit=4.00D+00 DoMicB=T.
 Symmetry reduced    86 angular points to    86 for atom    1.
 Pruned (  99, 590) grid will be used in numerical quadrature.
 Pruned (  99, 590) grid will be used in numerical quadrature.
 IPart=  8 IRanGd=          0 ScrnBf=T ScrnGd=T RCrit=4.00D+00 DoMicB=T.
 CutRad = 1000.00    CtRdIn =    0.00    XCrit =  15.00   ICut = 0
 IPart= 11 IRanGd=          0 ScrnBf=T ScrnGd=T RCrit=4.00D+00 DoMicB=T.
 Pruned (  99, 590) grid will be used in numerical quadrature.
 Pruned (  99, 590) grid will be used in numerical quadrature.
 CutRad = 1000.00    CtRdIn =    0.00    XCrit =  15.00   ICut = 0
 IPart= 15 IRanGd=          0 ScrnBf=T ScrnGd=T RCrit=4.00D+00 DoMicB=T.
 CutRad = 1000.00    CtRdIn =    0.00    XCrit =  15.00   ICut = 0
 IPart=  5 IRanGd=          0 ScrnBf=T ScrnGd=T RCrit=4.00D+00 DoMicB=T.
 CutRad = 1000.00    CtRdIn =    0.00    XCrit =  15.00   ICut = 0
 CutRad = 1000.00    CtRdIn =    0.00    XCrit =  15.00   ICut = 0
 CutRad = 1000.00    CtRdIn =    0.00    XCrit =  15.00   ICut = 0
 Pruned (  99, 590) grid will be used in numerical quadrature.
 Pruned (  99, 590) grid will be used in numerical quadrature.
 Pruned (  99, 590) grid will be used in numerical quadrature.
 Pruned (  99, 590) grid will be used in numerical quadrature.
 IPart= 12 IRanGd=          0 ScrnBf=T ScrnGd=T RCrit=4.00D+00 DoMicB=T.
 Pruned (  99, 590) grid will be used in numerical quadrature.
 IPart= 15 Atom number   1 atomic number  8 has       23718 grid points.
 Pruned (  99, 590) grid will be used in numerical quadrature.
 IPart= 15 Atom   1 batch    4 overlaps    4 atoms,    50 shells and     4 DB shells.   NGrid=      1180
 CutRad = 1000.00    CtRdIn =    0.00    XCrit =  15.00   ICut = 0
 IPart=  7 IRanGd=          0 ScrnBf=T ScrnGd=T RCrit=4.00D+00 DoMicB=T.
 Pruned (  99, 590) grid will be used in numerical quadrature.
 IPart=  8 Atom number   1 atomic number  8 has       23718 grid points.
 IPart=  9 IRanGd=          0 ScrnBf=T ScrnGd=T RCrit=4.00D+00 DoMicB=T.
 IPart=  4 IRanGd=          0 ScrnBf=T ScrnGd=T RCrit=4.00D+00 DoMicB=T.
 IPart=  8 Atom   1 batch    2 overlaps    4 atoms,    50 shells and     4 DB shells.   NGrid=      2522
 CutRad = 1000.00    CtRdIn =    0.00    XCrit =  15.00   ICut = 0
 Symmetry reduced   590 angular points to   590 for atom    1.
 Pruned (  99, 590) grid will be used in numerical quadrature.
 IPart=  6 IRanGd=          0 ScrnBf=T ScrnGd=T RCrit=4.00D+00 DoMicB=T.
 Pruned (  99, 590) grid will be used in numerical quadrature.
 Pruned (  99, 590) grid will be used in numerical quadrature.
 IPart= 13 IRanGd=          0 ScrnBf=T ScrnGd=T RCrit=4.00D+00 DoMicB=T.
 CutRad = 1000.00    CtRdIn =    0.00    XCrit =  15.00   ICut = 0
 Pruned (  99, 590) grid will be used in numerical quadrature.
 CutRad = 1000.00    CtRdIn =    0.00    XCrit =  15.00   ICut = 0
 IPart= 10 IRanGd=          0 ScrnBf=T ScrnGd=T RCrit=4.00D+00 DoMicB=T.
 Symmetry reduced   194 angular points to   194 for atom    1.
 CutRad = 1000.00    CtRdIn =    0.00    XCrit =  15.00   ICut = 0
 CutRad = 1000.00    CtRdIn =    0.00    XCrit =  15.00   ICut = 0
 IPart= 12 Atom number   1 atomic number  8 has       23718 grid points.
 IPart=  2 IRanGd=          0 ScrnBf=T ScrnGd=T RCrit=4.00D+00 DoMicB=T.
 IPart= 11 Atom number   1 atomic number  8 has       23718 grid points.
 Pruned (  99, 590) grid will be used in numerical quadrature.
 Pruned (  99, 590) grid will be used in numerical quadrature.
 Pruned (  99, 590) grid will be used in numerical quadrature.
 Pruned (  99, 590) grid will be used in numerical quadrature.
 IPart= 14 IRanGd=          0 ScrnBf=T ScrnGd=T RCrit=4.00D+00 DoMicB=T.
 IPart=  1 Atom number   1 atomic number  8 has       23718 grid points.
 IPart=  3 Atom number   1 atomic number  8 has       23718 grid points.
 CutRad = 1000.00    CtRdIn =    0.00    XCrit =  15.00   ICut = 0
 IPart=  3 Atom   1 batch    9 overlaps    4 atoms,    51 shells and     4 DB shells.   NGrid=      1180
 Pruned (  99, 590) grid will be used in numerical quadrature.
 CutRad = 1000.00    CtRdIn =    0.00    XCrit =  15.00   ICut = 0
 Symmetry reduced   590 angular points to   590 for atom    1.
 IPart= 10 Atom number   1 atomic number  8 has       23718 grid points.
 Pruned (  99, 590) grid will be used in numerical quadrature.
 Pruned (  99, 590) grid will be used in numerical quadrature.
 IPart= 13 Atom number   1 atomic number  8 has       23718 grid points.
 IPart=  6 Atom number   1 atomic number  8 has       23718 grid points.
 IPart=  1 Atom   1 batch    8 overlaps    4 atoms,    51 shells and     4 DB shells.   NGrid=      1180
 Pruned (  99, 590) grid will be used in numerical quadrature.
 IPart=  5 Atom number   1 atomic number  8 has       23718 grid points.
 IPart= 12 Atom   1 batch    5 overlaps    4 atoms,    50 shells and     4 DB shells.   NGrid=      1180
 IPart=  5 Atom   1 batch    6 overlaps    4 atoms,    50 shells and     4 DB shells.   NGrid=      1180
 CutRad = 1000.00    CtRdIn =    0.00    XCrit =  15.00   ICut = 0
 IPart= 11 Atom   1 batch    3 overlaps    4 atoms,    50 shells and     4 DB shells.   NGrid=      2114
 Pruned (  99, 590) grid will be used in numerical quadrature.
 Symmetry reduced   590 angular points to   590 for atom    1.
 Pruned (  99, 590) grid will be used in numerical quadrature.
 Symmetry reduced   302 angular points to   302 for atom    1.
 IPart=  4 Atom number   1 atomic number  8 has       23718 grid points.
 IPart=  9 Atom number   1 atomic number  8 has       23718 grid points.
 IPart=  4 Atom   1 batch   15 overlaps    4 atoms,    47 shells and     4 DB shells.   NGrid=       604
 IPart=  9 Atom   1 batch   13 overlaps    4 atoms,    50 shells and     4 DB shells.   NGrid=       604
 Symmetry reduced   590 angular points to   590 for atom    1.
 Symmetry reduced   302 angular points to   302 for atom    1.
 Symmetry reduced   590 angular points to   590 for atom    1.
 Symmetry reduced   302 angular points to   302 for atom    1.
 IPart= 14 Atom number   1 atomic number  8 has       23718 grid points.
 IPart= 10 Atom   1 batch   11 overlaps    4 atoms,    51 shells and     4 DB shells.   NGrid=      1180
 IPart= 14 Atom   1 batch   14 overlaps    4 atoms,    50 shells and     4 DB shells.   NGrid=       604
 IPart= 13 Atom   1 batch   12 overlaps    4 atoms,    50 shells and     4 DB shells.   NGrid=       590
 IPart=  6 Atom   1 batch    7 overlaps    4 atoms,    50 shells and     4 DB shells.   NGrid=      1180
 Symmetry reduced   302 angular points to   302 for atom    1.
 Symmetry reduced   590 angular points to   590 for atom    1.
 Symmetry reduced   590 angular points to   590 for atom    1.
 Symmetry reduced   590 angular points to   590 for atom    1.
 Pruned (  99, 590) grid will be used in numerical quadrature.
 IPart=  7 Atom number   1 atomic number  8 has       23718 grid points.
 IPart=  7 Atom   1 batch   10 overlaps    4 atoms,    51 shells and     4 DB shells.   NGrid=      1180
 Symmetry reduced   590 angular points to   590 for atom    1.
 Pruned (  99, 590) grid will be used in numerical quadrature.
 IPart=  2 Atom number   1 atomic number  8 has       23718 grid points.
 IPart=  2 Atom   1 batch   16 overlaps    4 atoms,    45 shells and     4 DB shells.   NGrid=       604
 Symmetry reduced   302 angular points to   302 for atom    1.
 IPart=  4 Atom   1 batch   17 overlaps    4 atoms,    44 shells and     4 DB shells.   NGrid=       604
 IPart=  2 Atom   1 batch   18 overlaps    4 atoms,    36 shells and     4 DB shells.   NGrid=       604
 IPart=  9 Atom   1 batch   19 overlaps    4 atoms,    29 shells and     4 DB shells.   NGrid=       604
 IPart= 13 Atom   1 batch   20 overlaps    4 atoms,    18 shells and     3 DB shells.   NGrid=       604
 Symmetry reduced   302 angular points to   302 for atom    1.
 IPart= 14 Atom   1 batch   21 overlaps    4 atoms,    12 shells and     2 DB shells.   NGrid=       604
 IPart= 13 Atom   1 batch   22 overlaps    4 atoms,     5 shells and     0 DB shells.   NGrid=       604
 IPart= 14 Atom   1 batch   23 overlaps    4 atoms,     1 shells and     0 DB shells.   NGrid=       604
 Pruned (  99, 590) grid will be used in numerical quadrature.
 IPart= 14 Atom number   2 atomic number  8 has       23718 grid points.
 IPart= 14 Atom   2 batch    1 overlaps    4 atoms,    50 shells and     4 DB shells.   NGrid=      2408
 Symmetry reduced    86 angular points to    86 for atom    2.
 Pruned (  99, 590) grid will be used in numerical quadrature.
 Pruned (  99, 590) grid will be used in numerical quadrature.
 IPart=  9 Atom number   2 atomic number  8 has       23718 grid points.
 IPart= 13 Atom number   2 atomic number  8 has       23718 grid points.
 IPart=  9 Atom   2 batch    2 overlaps    4 atoms,    50 shells and     4 DB shells.   NGrid=      2522
 IPart= 13 Atom   2 batch    3 overlaps    4 atoms,    50 shells and     4 DB shells.   NGrid=      2114
 Symmetry reduced   194 angular points to   194 for atom    2.
 Symmetry reduced   302 angular points to   302 for atom    2.
 Pruned (  99, 590) grid will be used in numerical quadrature.
 IPart=  2 Atom number   2 atomic number  8 has       23718 grid points.
 IPart=  2 Atom   2 batch    4 overlaps    4 atoms,    50 shells and     4 DB shells.   NGrid=      1180
 Symmetry reduced   590 angular points to   590 for atom    2.
 Pruned (  99, 590) grid will be used in numerical quadrature.
 IPart=  4 Atom number   2 atomic number  8 has       23718 grid points.
 IPart=  4 Atom   2 batch    5 overlaps    4 atoms,    50 shells and     4 DB shells.   NGrid=      1180
 Symmetry reduced   590 angular points to   590 for atom    2.
 Pruned (  99, 590) grid will be used in numerical quadrature.
 IPart=  1 Atom number   2 atomic number  8 has       23718 grid points.
 IPart=  1 Atom   2 batch    6 overlaps    4 atoms,    50 shells and     4 DB shells.   NGrid=      1180
 Symmetry reduced   590 angular points to   590 for atom    2.
 Pruned (  99, 590) grid will be used in numerical quadrature.
 IPart= 15 Atom number   2 atomic number  8 has       23718 grid points.
 IPart= 15 Atom   2 batch    7 overlaps    4 atoms,    50 shells and     4 DB shells.   NGrid=      1180
 Symmetry reduced   590 angular points to   590 for atom    2.
 Pruned (  99, 590) grid will be used in numerical quadrature.
 IPart=  3 Atom number   2 atomic number  8 has       23718 grid points.
 IPart=  3 Atom   2 batch    8 overlaps    4 atoms,    51 shells and     4 DB shells.   NGrid=      1180
 Pruned (  99, 590) grid will be used in numerical quadrature.
 Symmetry reduced   590 angular points to   590 for atom    2.
 IPart=  5 Atom number   2 atomic number  8 has       23718 grid points.
 IPart=  5 Atom   2 batch    9 overlaps    4 atoms,    51 shells and     4 DB shells.   NGrid=      1180
 Symmetry reduced   590 angular points to   590 for atom    2.
 Pruned (  99, 590) grid will be used in numerical quadrature.
 IPart= 12 Atom number   2 atomic number  8 has       23718 grid points.
 IPart= 12 Atom   2 batch   10 overlaps    4 atoms,    51 shells and     4 DB shells.   NGrid=      1180
 Symmetry reduced   590 angular points to   590 for atom    2.
 Pruned (  99, 590) grid will be used in numerical quadrature.
 IPart=  7 Atom number   2 atomic number  8 has       23718 grid points.
 IPart=  7 Atom   2 batch   11 overlaps    4 atoms,    51 shells and     4 DB shells.   NGrid=      1180
 Symmetry reduced   590 angular points to   590 for atom    2.
 Pruned (  99, 590) grid will be used in numerical quadrature.
 IPart=  6 Atom number   2 atomic number  8 has       23718 grid points.
 IPart=  6 Atom   2 batch   12 overlaps    4 atoms,    50 shells and     4 DB shells.   NGrid=       590
 Symmetry reduced   590 angular points to   590 for atom    2.
 Pruned (  99, 590) grid will be used in numerical quadrature.
 IPart= 10 Atom number   2 atomic number  8 has       23718 grid points.
 IPart= 10 Atom   2 batch   13 overlaps    4 atoms,    50 shells and     4 DB shells.   NGrid=       604
 Symmetry reduced   302 angular points to   302 for atom    2.
 Pruned (  99, 590) grid will be used in numerical quadrature.
 IPart=  0 Atom number   2 atomic number  8 has       23718 grid points.
 IPart=  0 Atom   2 batch   14 overlaps    4 atoms,    50 shells and     4 DB shells.   NGrid=       604
 Symmetry reduced   302 angular points to   302 for atom    2.
 IPart=  6 Atom   2 batch   15 overlaps    4 atoms,    47 shells and     4 DB shells.   NGrid=       604
 Symmetry reduced   302 angular points to   302 for atom    2.
 IPart= 10 Atom   2 batch   16 overlaps    4 atoms,    45 shells and     4 DB shells.   NGrid=       604
 Pruned (  99, 590) grid will be used in numerical quadrature.
 IPart= 11 Atom number   2 atomic number  8 has       23718 grid points.
 IPart= 11 Atom   2 batch   17 overlaps    4 atoms,    44 shells and     4 DB shells.   NGrid=       604
 Symmetry reduced   302 angular points to   302 for atom    2.
 Pruned (  99, 590) grid will be used in numerical quadrature.
 IPart=  8 Atom number   2 atomic number  8 has       23718 grid points.
 IPart=  8 Atom   2 batch   18 overlaps    4 atoms,    36 shells and     4 DB shells.   NGrid=       604
 Symmetry reduced   302 angular points to   302 for atom    2.
 IPart=  2 Atom   2 batch   19 overlaps    4 atoms,    29 shells and     4 DB shells.   NGrid=       604
 Symmetry reduced   302 angular points to   302 for atom    2.
 IPart=  4 Atom   2 batch   20 overlaps    4 atoms,    18 shells and     3 DB shells.   NGrid=       604
 Symmetry reduced   302 angular points to   302 for atom    2.
 IPart=  1 Atom   2 batch   21 overlaps    4 atoms,    12 shells and     2 DB shells.   NGrid=       604
 Symmetry reduced   302 angular points to   302 for atom    2.
 IPart= 15 Atom   2 batch   22 overlaps    4 atoms,     5 shells and     0 DB shells.   NGrid=       604
 Symmetry reduced   302 angular points to   302 for atom    2.
 IPart=  3 Atom   2 batch   23 overlaps    4 atoms,     1 shells and     0 DB shells.   NGrid=       604
 Symmetry reduced   302 angular points to   302 for atom    2.
 Pruned (  99, 590) grid will be used in numerical quadrature.
 IPart=  4 Atom number   3 atomic number  6 has       23114 grid points.
 IPart=  4 Atom   3 batch    1 overlaps    4 atoms,    51 shells and     4 DB shells.   NGrid=      2408
 Symmetry reduced    86 angular points to    86 for atom    3.
 Pruned (  99, 590) grid will be used in numerical quadrature.
 IPart=  5 Atom number   3 atomic number  6 has       23114 grid points.
 IPart=  5 Atom   3 batch    2 overlaps    4 atoms,    51 shells and     4 DB shells.   NGrid=      2522
 Symmetry reduced   194 angular points to   194 for atom    3.
 Pruned (  99, 590) grid will be used in numerical quadrature.
 IPart=  1 Atom number   3 atomic number  6 has       23114 grid points.
 IPart=  1 Atom   3 batch    3 overlaps    4 atoms,    51 shells and     4 DB shells.   NGrid=      2114
 Symmetry reduced   302 angular points to   302 for atom    3.
 Pruned (  99, 590) grid will be used in numerical quadrature.
 Pruned (  99, 590) grid will be used in numerical quadrature.
 IPart=  3 Atom number   3 atomic number  6 has       23114 grid points.
 IPart= 12 Atom number   3 atomic number  6 has       23114 grid points.
 IPart=  3 Atom   3 batch    4 overlaps    4 atoms,    51 shells and     4 DB shells.   NGrid=      1180
 IPart= 12 Atom   3 batch    5 overlaps    4 atoms,    51 shells and     4 DB shells.   NGrid=      1180
 Symmetry reduced   590 angular points to   590 for atom    3.
 Symmetry reduced   590 angular points to   590 for atom    3.
 Pruned (  99, 590) grid will be used in numerical quadrature.
 IPart=  2 Atom number   3 atomic number  6 has       23114 grid points.
 IPart=  2 Atom   3 batch    6 overlaps    4 atoms,    51 shells and     4 DB shells.   NGrid=      1180
 Symmetry reduced   590 angular points to   590 for atom    3.
 Pruned (  99, 590) grid will be used in numerical quadrature.
 IPart= 15 Atom number   3 atomic number  6 has       23114 grid points.
 IPart= 15 Atom   3 batch    7 overlaps    4 atoms,    51 shells and     4 DB shells.   NGrid=      1180
 Symmetry reduced   590 angular points to   590 for atom    3.
 Pruned (  99, 590) grid will be used in numerical quadrature.
 Pruned (  99, 590) grid will be used in numerical quadrature.
 IPart= 10 Atom number   3 atomic number  6 has       23114 grid points.
 IPart=  7 Atom number   3 atomic number  6 has       23114 grid points.
 IPart= 10 Atom   3 batch    8 overlaps    4 atoms,    51 shells and     4 DB shells.   NGrid=      1180
 IPart=  7 Atom   3 batch    9 overlaps    4 atoms,    51 shells and     4 DB shells.   NGrid=      1180
 Pruned (  99, 590) grid will be used in numerical quadrature.
 Symmetry reduced   590 angular points to   590 for atom    3.
 Symmetry reduced   590 angular points to   590 for atom    3.
 IPart=  6 Atom number   3 atomic number  6 has       23114 grid points.
 IPart=  6 Atom   3 batch   10 overlaps    4 atoms,    51 shells and     4 DB shells.   NGrid=      1180
 Symmetry reduced   590 angular points to   590 for atom    3.
 Pruned (  99, 590) grid will be used in numerical quadrature.
 Pruned (  99, 590) grid will be used in numerical quadrature.
 IPart= 11 Atom number   3 atomic number  6 has       23114 grid points.
 IPart=  0 Atom number   3 atomic number  6 has       23114 grid points.
 Pruned (  99, 590) grid will be used in numerical quadrature.
 IPart=  0 Atom   3 batch   12 overlaps    4 atoms,    50 shells and     4 DB shells.   NGrid=       590
 IPart=  8 Atom number   3 atomic number  6 has       23114 grid points.
 IPart= 11 Atom   3 batch   11 overlaps    4 atoms,    50 shells and     4 DB shells.   NGrid=      1180
 IPart=  8 Atom   3 batch   13 overlaps    4 atoms,    50 shells and     4 DB shells.   NGrid=       604
 Symmetry reduced   590 angular points to   590 for atom    3.
 Symmetry reduced   590 angular points to   590 for atom    3.
 Symmetry reduced   302 angular points to   302 for atom    3.
 Pruned (  99, 590) grid will be used in numerical quadrature.
 Pruned (  99, 590) grid will be used in numerical quadrature.
 IPart= 13 Atom number   3 atomic number  6 has       23114 grid points.
 IPart= 14 Atom number   3 atomic number  6 has       23114 grid points.
 IPart= 13 Atom   3 batch   14 overlaps    4 atoms,    48 shells and     4 DB shells.   NGrid=       604
 IPart= 14 Atom   3 batch   15 overlaps    4 atoms,    45 shells and     4 DB shells.   NGrid=       604
 Symmetry reduced   302 angular points to   302 for atom    3.
 Symmetry reduced   302 angular points to   302 for atom    3.
 IPart=  0 Atom   3 batch   16 overlaps    4 atoms,    34 shells and     4 DB shells.   NGrid=       604
 Symmetry reduced   302 angular points to   302 for atom    3.
 IPart=  8 Atom   3 batch   17 overlaps    4 atoms,    29 shells and     4 DB shells.   NGrid=       604
 Pruned (  99, 590) grid will be used in numerical quadrature.
 IPart=  9 Atom number   3 atomic number  6 has       23114 grid points.
 IPart=  9 Atom   3 batch   18 overlaps    4 atoms,    21 shells and     4 DB shells.   NGrid=       604
 Symmetry reduced   302 angular points to   302 for atom    3.
 IPart=  9 Atom   3 batch   19 overlaps    4 atoms,    16 shells and     4 DB shells.   NGrid=       604
 IPart= 14 Atom   3 batch   20 overlaps    4 atoms,    10 shells and     0 DB shells.   NGrid=       604
 IPart=  8 Atom   3 batch   21 overlaps    4 atoms,     5 shells and     0 DB shells.   NGrid=       604
 IPart= 13 Atom   3 batch   22 overlaps    4 atoms,     1 shells and     0 DB shells.   NGrid=       604
 Pruned (  99, 590) grid will be used in numerical quadrature.
 IPart=  9 Atom number   4 atomic number  1 has       23164 grid points.
 IPart=  9 Atom   4 batch    1 overlaps    4 atoms,    49 shells and     4 DB shells.   NGrid=      2838
 Pruned (  99, 590) grid will be used in numerical quadrature.
 Symmetry reduced    86 angular points to    86 for atom    4.
 IPart=  0 Atom number   4 atomic number  1 has       23164 grid points.
 IPart=  0 Atom   4 batch    2 overlaps    4 atoms,    49 shells and     4 DB shells.   NGrid=      1552
 Symmetry reduced   194 angular points to   194 for atom    4.
 Pruned (  99, 590) grid will be used in numerical quadrature.
 IPart= 12 Atom number   4 atomic number  1 has       23164 grid points.
 IPart= 12 Atom   4 batch    3 overlaps    4 atoms,    49 shells and     4 DB shells.   NGrid=      2416
 Pruned (  99, 590) grid will be used in numerical quadrature.
 Pruned (  99, 590) grid will be used in numerical quadrature.
 IPart=  3 Atom number   4 atomic number  1 has       23164 grid points.
 IPart= 14 Atom number   4 atomic number  1 has       23164 grid points.
 IPart=  3 Atom   4 batch    4 overlaps    4 atoms,    49 shells and     4 DB shells.   NGrid=      1180
 IPart= 14 Atom   4 batch    5 overlaps    4 atoms,    51 shells and     4 DB shells.   NGrid=      1180
 Symmetry reduced   302 angular points to   302 for atom    4.
 Symmetry reduced   590 angular points to   590 for atom    4.
 Symmetry reduced   590 angular points to   590 for atom    4.
 Pruned (  99, 590) grid will be used in numerical quadrature.
 IPart=  6 Atom number   4 atomic number  1 has       23164 grid points.
 IPart=  6 Atom   4 batch    6 overlaps    4 atoms,    51 shells and     4 DB shells.   NGrid=      1180
 Pruned (  99, 590) grid will be used in numerical quadrature.
 Symmetry reduced   590 angular points to   590 for atom    4.
 IPart=  2 Atom number   4 atomic number  1 has       23164 grid points.
 Pruned (  99, 590) grid will be used in numerical quadrature.
 IPart=  2 Atom   4 batch    7 overlaps    4 atoms,    51 shells and     4 DB shells.   NGrid=      1180
 IPart= 11 Atom number   4 atomic number  1 has       23164 grid points.
 IPart= 11 Atom   4 batch    8 overlaps    4 atoms,    51 shells and     4 DB shells.   NGrid=      1180
 Symmetry reduced   590 angular points to   590 for atom    4.
 Symmetry reduced   590 angular points to   590 for atom    4.
 Pruned (  99, 590) grid will be used in numerical quadrature.
 IPart= 10 Atom number   4 atomic number  1 has       23164 grid points.
 IPart= 10 Atom   4 batch    9 overlaps    4 atoms,    51 shells and     4 DB shells.   NGrid=      1180
 Symmetry reduced   590 angular points to   590 for atom    4.
 Pruned (  99, 590) grid will be used in numerical quadrature.
 IPart=  7 Atom number   4 atomic number  1 has       23164 grid points.
 IPart=  7 Atom   4 batch   10 overlaps    4 atoms,    51 shells and     4 DB shells.   NGrid=      1180
 Pruned (  99, 590) grid will be used in numerical quadrature.
 Symmetry reduced   590 angular points to   590 for atom    4.
 IPart= 15 Atom number   4 atomic number  1 has       23164 grid points.
 IPart= 15 Atom   4 batch   11 overlaps    4 atoms,    51 shells and     4 DB shells.   NGrid=      1180
 Symmetry reduced   590 angular points to   590 for atom    4.
 Pruned (  99, 590) grid will be used in numerical quadrature.
 IPart= 13 Atom number   4 atomic number  1 has       23164 grid points.
 IPart= 13 Atom   4 batch   12 overlaps    4 atoms,    51 shells and     4 DB shells.   NGrid=      1180
 Symmetry reduced   590 angular points to   590 for atom    4.
 Pruned (  99, 590) grid will be used in numerical quadrature.
 IPart=  8 Atom number   4 atomic number  1 has       23164 grid points.
 IPart=  8 Atom   4 batch   13 overlaps    4 atoms,    51 shells and     4 DB shells.   NGrid=       604
 Symmetry reduced   302 angular points to   302 for atom    4.
 IPart=  8 Atom   4 batch   14 overlaps    4 atoms,    51 shells and     4 DB shells.   NGrid=       604
 Pruned (  99, 590) grid will be used in numerical quadrature.
 IPart=  1 Atom number   4 atomic number  1 has       23164 grid points.
 IPart=  1 Atom   4 batch   15 overlaps    4 atoms,    45 shells and     4 DB shells.   NGrid=       604
 Symmetry reduced   302 angular points to   302 for atom    4.
 Pruned (  99, 590) grid will be used in numerical quadrature.
 IPart=  4 Atom number   4 atomic number  1 has       23164 grid points.
 IPart=  4 Atom   4 batch   16 overlaps    4 atoms,    44 shells and     4 DB shells.   NGrid=       604
 Symmetry reduced   302 angular points to   302 for atom    4.
 IPart=  3 Atom   4 batch   17 overlaps    4 atoms,    33 shells and     4 DB shells.   NGrid=       604
 Symmetry reduced   302 angular points to   302 for atom    4.
 IPart=  2 Atom   4 batch   18 overlaps    4 atoms,    23 shells and     4 DB shells.   NGrid=       604
 IPart= 14 Atom   4 batch   19 overlaps    4 atoms,    18 shells and     4 DB shells.   NGrid=       604
 Symmetry reduced   302 angular points to   302 for atom    4.
 Symmetry reduced   302 angular points to   302 for atom    4.
 IPart=  6 Atom   4 batch   20 overlaps    4 atoms,     8 shells and     0 DB shells.   NGrid=       604
 Symmetry reduced   302 angular points to   302 for atom    4.
 IPart= 10 Atom   4 batch   21 overlaps    4 atoms,     5 shells and     0 DB shells.   NGrid=       604
 Pruned (  99, 590) grid will be used in numerical quadrature.
 Symmetry reduced   302 angular points to   302 for atom    4.
 IPart=  5 Atom number   4 atomic number  1 has       23164 grid points.
 IPart=  5 Atom   4 batch   22 overlaps    4 atoms,     0 shells and     0 DB shells.   NGrid=       302
 There are a total of       93412 grid points.
 ElSum from          density=       24.0000000002
 ElSum from atomic densities=       22.9999997231

 Hirshfeld populations at iteration   1 (CX, CA, CB, DipXYZ):
               1          2          3          4          5          6
     1  O    0.000014   4.264679   4.264679   0.000000  -0.257905   0.107054
     2  O    0.000014   4.264679   4.264679   0.000000   0.257905   0.107054
     3  C    0.000000   2.945272   2.945272   0.000000   0.000000   0.056495
     4  H    0.000009   0.525370   0.525370   0.000000   0.000000   0.071911
       Tot   0.000038  12.000000  12.000000   0.000000   0.000000   0.342514

 Dip from Atomic Chgs              0.000000   0.000000   0.338451
         Total Dipole              0.000000   0.000000   0.680965

 Hirshfeld charges, spin densities, dipoles, and CM5 charges using IRadAn=      5:
              Q-H        S-H        Dx         Dy         Dz        Q-CM5   
     1  O   -0.529358   0.000000   0.000000  -0.257905   0.107054  -0.577623
     2  O   -0.529358   0.000000   0.000000   0.257905   0.107054  -0.577623
     3  C    0.109456   0.000000   0.000000   0.000000   0.056495   0.134791
     4  H   -0.050740   0.000000   0.000000   0.000000   0.071911   0.020455
       Tot  -1.000000   0.000000   0.000000   0.000000   0.342514  -1.000000
 Hirshfeld charges with hydrogens summed into heavy atoms:
              Q-H       Q-CM5   
     1  O   -0.529358  -0.577623
     2  O   -0.529358  -0.577623
     3  C    0.058716   0.155246
 
 EQQ=  0.00000000000     EQD=  0.00000000000     EDD= 0.953822591850E-03
 EQQ+QD+DD= 0.953822591850E-03
 
 Entering OneElI...
 OneElI was handed  4294900714 working-precision words.
 Calculate electrostatic properties
    NBasis =   161  MinDer = 0  MaxDer = 0
    NGrid  =     4  NMatD  =   1
 Requested accuracy = 0.1000D-12
 ShPair: Thresh= 1.00D-13 NBox=     0 BxSize= 0.00D+00 RnKept= 4.22D+00
         NSMCal=                 1326 NSMKep=                1319
 PrmmSu-InSpLW:  IPartL=    0 NPrtUS=   16 NPrtUL=    1 DoSpLW=F IThBeg=    0 IThEnd=   15 NThAct=   16.
 PrSmSu:  IncTry=   512 NBBP=           5276 NTPThr=   100 NPartT=   16 Incr=           3 LDynOK=F GPUOK=F.
 PrsmSu:  NPrtUS=  16 ThrOK=T IAlg=2 LenDen=           0 ISkipM=0 DoSpLW=F IThBeg=    0 IThEnd=   15.
 Prism:   IPart=     0 DynPar=F LinDyn=F Incr=           3.
 PRISM was handed   268395435 working-precision words and  1319 shell-pairs
 PRISM was handed   268395435 working-precision words and  1319 shell-pairs
 PRISM was handed   268395435 working-precision words and  1319 shell-pairs
 PRISM was handed   268395435 working-precision words and  1319 shell-pairs
 PRISM was handed   268395435 working-precision words and  1319 shell-pairs
 PRISM was handed   268395435 working-precision words and  1319 shell-pairs
 PRISM was handed   268395435 working-precision words and  1319 shell-pairs
 PRISM was handed   268395435 working-precision words and  1319 shell-pairs
 PRISM was handed   268395435 working-precision words and  1319 shell-pairs
 PRISM was handed   268395435 working-precision words and  1319 shell-pairs
 PRISM was handed   268395435 working-precision words and  1319 shell-pairs
 PRISM was handed   268395435 working-precision words and  1319 shell-pairs
 PRISM was handed   268395435 working-precision words and  1319 shell-pairs
 PRISM was handed   268395435 working-precision words and  1319 shell-pairs
 PRISM was handed   268395435 working-precision words and  1319 shell-pairs
 PRISM was handed   268395435 working-precision words and  1319 shell-pairs
 IPart= 12 NShTot=         296 NBatch=          74 AvBLen=         4.0
 PrsmSu-ThDecC:  IPartSL=   12    0 NPrtUSL=   16    1 IThBeg=    0 IThEnd=   15 CPU=   -1 GPU=   -1 NThAct=   16.
 IPart= 10 NShTot=         300 NBatch=          75 AvBLen=         4.0
 PrsmSu-ThDecC:  IPartSL=   10    0 NPrtUSL=   16    1 IThBeg=    0 IThEnd=   15 CPU=   -1 GPU=   -1 NThAct=   15.
 IPart=  6 NShTot=         312 NBatch=          78 AvBLen=         4.0
 IPart=  8 NShTot=         304 NBatch=          76 AvBLen=         4.0
 PrsmSu-ThDecC:  IPartSL=    6    0 NPrtUSL=   16    1 IThBeg=    0 IThEnd=   15 CPU=   -1 GPU=   -1 NThAct=   14.
 PrsmSu-ThDecC:  IPartSL=    8    0 NPrtUSL=   16    1 IThBeg=    0 IThEnd=   15 CPU=   -1 GPU=   -1 NThAct=   13.
 IPart=  7 NShTot=         312 NBatch=          78 AvBLen=         4.0
 PrsmSu-ThDecC:  IPartSL=    7    0 NPrtUSL=   16    1 IThBeg=    0 IThEnd=   15 CPU=   -1 GPU=   -1 NThAct=   12.
 IPart= 11 NShTot=         300 NBatch=          75 AvBLen=         4.0
 IPart=  9 NShTot=         300 NBatch=          75 AvBLen=         4.0
 PrsmSu-ThDecC:  IPartSL=   11    0 NPrtUSL=   16    1 IThBeg=    0 IThEnd=   15 CPU=   -1 GPU=   -1 NThAct=   11.
 IPart=  5 NShTot=         324 NBatch=          81 AvBLen=         4.0
 PrsmSu-ThDecC:  IPartSL=    9    0 NPrtUSL=   16    1 IThBeg=    0 IThEnd=   15 CPU=   -1 GPU=   -1 NThAct=   10.
 IPart=  4 NShTot=         332 NBatch=          83 AvBLen=         4.0
 IPart=  2 NShTot=         372 NBatch=          93 AvBLen=         4.0
 IPart=  3 NShTot=         348 NBatch=          87 AvBLen=         4.0
 IPart= 15 NShTot=         280 NBatch=          70 AvBLen=         4.0
 IPart=  0 NShTot=         460 NBatch=         115 AvBLen=         4.0
 PrsmSu-ThDecC:  IPartSL=    5    0 NPrtUSL=   16    1 IThBeg=    0 IThEnd=   15 CPU=   -1 GPU=   -1 NThAct=    9.
 PrsmSu-ThDecC:  IPartSL=    3    0 NPrtUSL=   16    1 IThBeg=    0 IThEnd=   15 CPU=   -1 GPU=   -1 NThAct=    8.
 PrsmSu-ThDecC:  IPartSL=    4    0 NPrtUSL=   16    1 IThBeg=    0 IThEnd=   15 CPU=   -1 GPU=   -1 NThAct=    7.
 PrsmSu-ThDecC:  IPartSL=    0    0 NPrtUSL=   16    1 IThBeg=    0 IThEnd=   15 CPU=   -1 GPU=   -1 NThAct=    6.
 IPart= 14 NShTot=         292 NBatch=          73 AvBLen=         4.0
 IPart=  1 NShTot=         448 NBatch=         112 AvBLen=         4.0
 IPart= 13 NShTot=         296 NBatch=          74 AvBLen=         4.0
 PrsmSu-ThDecC:  IPartSL=   15    0 NPrtUSL=   16    1 IThBeg=    0 IThEnd=   15 CPU=   -1 GPU=   -1 NThAct=    5.
 PrsmSu-ThDecC:  IPartSL=    2    0 NPrtUSL=   16    1 IThBeg=    0 IThEnd=   15 CPU=   -1 GPU=   -1 NThAct=    4.
 PrsmSu-ThDecC:  IPartSL=   14    0 NPrtUSL=   16    1 IThBeg=    0 IThEnd=   15 CPU=   -1 GPU=   -1 NThAct=    3.
 PrsmSu-ThDecC:  IPartSL=   13    0 NPrtUSL=   16    1 IThBeg=    0 IThEnd=   15 CPU=   -1 GPU=   -1 NThAct=    2.
 PrsmSu-ThDecC:  IPartSL=    1    0 NPrtUSL=   16    1 IThBeg=    0 IThEnd=   15 CPU=   -1 GPU=   -1 NThAct=    1.
 PrSmSu:  NxtVal=             49.
 --------------------------------------------------------
       Center         ----      EFG at Nuclei      ----
                      3XX-RR        3YY-RR        3ZZ-RR
 --------------------------------------------------------
     1   Atom       -0.503114     -0.507922      1.011036
     2   Atom       -0.503114     -0.507922      1.011036
     3   Atom       -0.607448      0.401275      0.206173
     4   Atom        0.134434      0.131790     -0.266224
 --------------------------------------------------------
                        XY            XZ            YZ
 --------------------------------------------------------
     1   Atom       -0.000000     -0.000000      0.862181
     2   Atom        0.000000     -0.000000     -0.862181
     3   Atom        0.000000     -0.000000      0.000000
     4   Atom       -0.000000     -0.000000      0.000000
 --------------------------------------------------------


 ---------------------------------------------------------------------------------
              Nuclear Quadrupole Coupling Constant in Principal Axis System
 ---------------------------------------------------------------------------------

       Atom             a.u.   MegaHertz   Gauss  10(-4) cm-1        Axes


 ---------------------------------------------------------------------------------

 No NMR shielding tensors so no spin-rotation constants.
 Leave Link  601 at Tue Sep 30 16:58:54 2025, MaxMem=  4294967296 cpu:               2.7 elap:               0.2
 (Enter /software/sse/easybuild/prefix/software/Gaussian/16.C.01-avx2-nsc1/g16/l602.exe)
 FitSet:  NAtFit=     4 NAtPot=     4 NAtFrz=     0 MDM=     8 TotChg=  -1.00000
 Merz-Kollman atomic radii used.
 Atom Element Radius
    1     8    1.40
    2     8    1.40
    3     6    1.50
    4     1    1.20
 Generate VDW surfaces: Layer= 4 Dens= 6 Start= 1.400 Inc= 0.200

 **********************************************************************

            Electrostatic Properties Using The SCF Density.

 **********************************************************************

       Atomic Center    1 is at   0.000000  1.115480 -0.205640
       Atomic Center    2 is at  -0.000000 -1.115480 -0.205640
       Atomic Center    3 is at   0.000000 -0.000000  0.310060
       Atomic Center    4 is at   0.000000 -0.000000  1.429880
      ESP Fit Center    5 is at   0.398602  1.805879  1.584909
      ESP Fit Center    6 is at   0.000000  1.912684  1.584909
      ESP Fit Center    7 is at  -0.398602  1.805879  1.584909
      ESP Fit Center    8 is at   1.074263  1.531652  1.380033
      ESP Fit Center    9 is at   0.851382  1.891617  1.380033
      ESP Fit Center   10 is at   0.513517  2.146761  1.380033
      ESP Fit Center   11 is at   0.106299  2.262625  1.380033
      ESP Fit Center   12 is at  -0.315276  2.223560  1.380033
      ESP Fit Center   13 is at  -0.694271  2.034843  1.380033
      ESP Fit Center   14 is at  -0.979500  1.721961  1.380033
      ESP Fit Center   15 is at   1.397563  1.525841  1.105856
      ESP Fit Center   16 is at   1.225339  1.902958  1.105856
      ESP Fit Center   17 is at   0.953846  2.216278  1.105856
      ESP Fit Center   18 is at   0.605078  2.440417  1.105856
      ESP Fit Center   19 is at   0.207291  2.557218  1.105856
      ESP Fit Center   20 is at  -0.207291  2.557218  1.105856
      ESP Fit Center   21 is at  -0.605078  2.440417  1.105856
      ESP Fit Center   22 is at  -0.953846  2.216278  1.105856
      ESP Fit Center   23 is at  -1.225339  1.902958  1.105856
      ESP Fit Center   24 is at  -1.397563  1.525841  1.105856
      ESP Fit Center   25 is at   1.644083  1.537609  0.774360
      ESP Fit Center   26 is at   1.487452  1.933213  0.774360
      ESP Fit Center   27 is at   1.237358  2.277437  0.774360
      ESP Fit Center   28 is at   0.909518  2.548650  0.774360
      ESP Fit Center   29 is at   0.524528  2.729813  0.774360
      ESP Fit Center   30 is at   0.106581  2.809540  0.774360
      ESP Fit Center   31 is at  -0.318063  2.782824  0.774360
      ESP Fit Center   32 is at  -0.722722  2.651342  0.774360
      ESP Fit Center   33 is at  -1.081970  2.423357  0.774360
      ESP Fit Center   34 is at  -1.373233  2.113192  0.774360
      ESP Fit Center   35 is at  -1.578212  1.740338  0.774360
      ESP Fit Center   36 is at  -1.684025  1.328222  0.774360
      ESP Fit Center   37 is at   1.864071  1.115480  0.400033
      ESP Fit Center   38 is at   1.817335  1.530275  0.400033
      ESP Fit Center   39 is at   1.679470  1.924270  0.400033
      ESP Fit Center   40 is at   1.457389  2.277709  0.400033
      ESP Fit Center   41 is at   1.162229  2.572869  0.400033
      ESP Fit Center   42 is at   0.808790  2.794950  0.400033
      ESP Fit Center   43 is at   0.414795  2.932815  0.400033
      ESP Fit Center   44 is at   0.000000  2.979551  0.400033
      ESP Fit Center   45 is at  -0.414795  2.932815  0.400033
      ESP Fit Center   46 is at  -0.808790  2.794950  0.400033
      ESP Fit Center   47 is at  -1.162229  2.572869  0.400033
      ESP Fit Center   48 is at  -1.457389  2.277709  0.400033
      ESP Fit Center   49 is at  -1.679470  1.924270  0.400033
      ESP Fit Center   50 is at  -1.817335  1.530275  0.400033
      ESP Fit Center   51 is at  -1.864071  1.115480  0.400033
      ESP Fit Center   52 is at   1.949263  1.115480 -0.000764
      ESP Fit Center   53 is at   1.903690  1.534514 -0.000764
      ESP Fit Center   54 is at   1.769103  1.933954 -0.000764
      ESP Fit Center   55 is at   1.551795  2.295124 -0.000764
      ESP Fit Center   56 is at   1.261926  2.601134 -0.000764
      ESP Fit Center   57 is at   0.913051  2.837677 -0.000764
      ESP Fit Center   58 is at   0.521483  2.993692 -0.000764
      ESP Fit Center   59 is at   0.105531  3.061884 -0.000764
      ESP Fit Center   60 is at  -0.315356  3.039064 -0.000764
      ESP Fit Center   61 is at  -0.721497  2.926300 -0.000764
      ESP Fit Center   62 is at  -1.093901  2.728863 -0.000764
      ESP Fit Center   63 is at  -1.415156  2.455987 -0.000764
      ESP Fit Center   64 is at  -1.670240  2.120430 -0.000764
      ESP Fit Center   65 is at  -1.847225  1.737883 -0.000764
      ESP Fit Center   66 is at  -1.937836  1.326232 -0.000764
      ESP Fit Center   67 is at  -1.937836  0.904728 -0.000764
      ESP Fit Center   68 is at   1.949263  1.115480 -0.410516
      ESP Fit Center   69 is at   1.903690  1.534514 -0.410516
      ESP Fit Center   70 is at   1.769103  1.933954 -0.410516
      ESP Fit Center   71 is at   1.551795  2.295124 -0.410516
      ESP Fit Center   72 is at   1.261926  2.601134 -0.410516
      ESP Fit Center   73 is at   0.913051  2.837677 -0.410516
      ESP Fit Center   74 is at   0.521483  2.993692 -0.410516
      ESP Fit Center   75 is at   0.105531  3.061884 -0.410516
      ESP Fit Center   76 is at  -0.315356  3.039064 -0.410516
      ESP Fit Center   77 is at  -0.721497  2.926300 -0.410516
      ESP Fit Center   78 is at  -1.093901  2.728863 -0.410516
      ESP Fit Center   79 is at  -1.415156  2.455987 -0.410516
      ESP Fit Center   80 is at  -1.670240  2.120430 -0.410516
      ESP Fit Center   81 is at  -1.847225  1.737883 -0.410516
      ESP Fit Center   82 is at  -1.937836  1.326232 -0.410516
      ESP Fit Center   83 is at  -1.937836  0.904728 -0.410516
      ESP Fit Center   84 is at   1.903690  0.696446 -0.410516
      ESP Fit Center   85 is at   1.864071  1.115480 -0.811313
      ESP Fit Center   86 is at   1.817335  1.530275 -0.811313
      ESP Fit Center   87 is at   1.679470  1.924270 -0.811313
      ESP Fit Center   88 is at   1.457389  2.277709 -0.811313
      ESP Fit Center   89 is at   1.162229  2.572869 -0.811313
      ESP Fit Center   90 is at   0.808790  2.794950 -0.811313
      ESP Fit Center   91 is at   0.414795  2.932815 -0.811313
      ESP Fit Center   92 is at   0.000000  2.979551 -0.811313
      ESP Fit Center   93 is at  -0.414795  2.932815 -0.811313
      ESP Fit Center   94 is at  -0.808790  2.794950 -0.811313
      ESP Fit Center   95 is at  -1.162229  2.572869 -0.811313
      ESP Fit Center   96 is at  -1.457389  2.277709 -0.811313
      ESP Fit Center   97 is at  -1.679470  1.924270 -0.811313
      ESP Fit Center   98 is at  -1.817335  1.530275 -0.811313
      ESP Fit Center   99 is at  -1.864071  1.115480 -0.811313
      ESP Fit Center  100 is at  -1.817335  0.700685 -0.811313
      ESP Fit Center  101 is at   1.817335  0.700685 -0.811313
      ESP Fit Center  102 is at   1.697410  1.115480 -1.185640
      ESP Fit Center  103 is at   1.644083  1.537609 -1.185640
      ESP Fit Center  104 is at   1.487452  1.933213 -1.185640
      ESP Fit Center  105 is at   1.237358  2.277437 -1.185640
      ESP Fit Center  106 is at   0.909518  2.548650 -1.185640
      ESP Fit Center  107 is at   0.524528  2.729813 -1.185640
      ESP Fit Center  108 is at   0.106581  2.809540 -1.185640
      ESP Fit Center  109 is at  -0.318063  2.782824 -1.185640
      ESP Fit Center  110 is at  -0.722722  2.651342 -1.185640
      ESP Fit Center  111 is at  -1.081970  2.423357 -1.185640
      ESP Fit Center  112 is at  -1.373233  2.113192 -1.185640
      ESP Fit Center  113 is at  -1.578212  1.740338 -1.185640
      ESP Fit Center  114 is at  -1.684025  1.328222 -1.185640
      ESP Fit Center  115 is at  -1.684025  0.902738 -1.185640
      ESP Fit Center  116 is at  -1.578212  0.490622 -1.185640
      ESP Fit Center  117 is at   1.487452  0.297747 -1.185640
      ESP Fit Center  118 is at   1.644083  0.693351 -1.185640
      ESP Fit Center  119 is at   1.456564  1.115480 -1.517136
      ESP Fit Center  120 is at   1.397563  1.525841 -1.517136
      ESP Fit Center  121 is at   1.225339  1.902958 -1.517136
      ESP Fit Center  122 is at   0.953846  2.216278 -1.517136
      ESP Fit Center  123 is at   0.605078  2.440417 -1.517136
      ESP Fit Center  124 is at   0.207291  2.557218 -1.517136
      ESP Fit Center  125 is at  -0.207291  2.557218 -1.517136
      ESP Fit Center  126 is at  -0.605078  2.440417 -1.517136
      ESP Fit Center  127 is at  -0.953846  2.216278 -1.517136
      ESP Fit Center  128 is at  -1.225339  1.902958 -1.517136
      ESP Fit Center  129 is at  -1.397563  1.525841 -1.517136
      ESP Fit Center  130 is at  -1.456564  1.115480 -1.517136
      ESP Fit Center  131 is at  -1.397563  0.705119 -1.517136
      ESP Fit Center  132 is at  -1.225339  0.328002 -1.517136
      ESP Fit Center  133 is at   1.225339  0.328002 -1.517136
      ESP Fit Center  134 is at   1.397563  0.705119 -1.517136
      ESP Fit Center  135 is at   1.152059  1.115480 -1.791313
      ESP Fit Center  136 is at   1.074263  1.531652 -1.791313
      ESP Fit Center  137 is at   0.851382  1.891617 -1.791313
      ESP Fit Center  138 is at   0.513517  2.146761 -1.791313
      ESP Fit Center  139 is at   0.106299  2.262625 -1.791313
      ESP Fit Center  140 is at  -0.315276  2.223560 -1.791313
      ESP Fit Center  141 is at  -0.694271  2.034843 -1.791313
      ESP Fit Center  142 is at  -0.979500  1.721961 -1.791313
      ESP Fit Center  143 is at  -1.132443  1.327170 -1.791313
      ESP Fit Center  144 is at  -1.132443  0.903790 -1.791313
      ESP Fit Center  145 is at  -0.979500  0.508999 -1.791313
      ESP Fit Center  146 is at  -0.694271  0.196117 -1.791313
      ESP Fit Center  147 is at  -0.315276  0.007400 -1.791313
      ESP Fit Center  148 is at   0.513517  0.084199 -1.791313
      ESP Fit Center  149 is at   0.851382  0.339343 -1.791313
      ESP Fit Center  150 is at   1.074263  0.699308 -1.791313
      ESP Fit Center  151 is at   0.797204  1.115480 -1.996189
      ESP Fit Center  152 is at   0.690399  1.514082 -1.996189
      ESP Fit Center  153 is at   0.398602  1.805879 -1.996189
      ESP Fit Center  154 is at   0.000000  1.912684 -1.996189
      ESP Fit Center  155 is at  -0.398602  1.805879 -1.996189
      ESP Fit Center  156 is at  -0.690399  1.514082 -1.996189
      ESP Fit Center  157 is at  -0.797204  1.115480 -1.996189
      ESP Fit Center  158 is at  -0.690399  0.716878 -1.996189
      ESP Fit Center  159 is at  -0.398602  0.425081 -1.996189
      ESP Fit Center  160 is at  -0.000000  0.318276 -1.996189
      ESP Fit Center  161 is at   0.398602  0.425081 -1.996189
      ESP Fit Center  162 is at   0.690399  0.716878 -1.996189
      ESP Fit Center  163 is at   0.407507  1.115480 -2.122809
      ESP Fit Center  164 is at   0.203753  1.468391 -2.122809
      ESP Fit Center  165 is at  -0.203753  1.468391 -2.122809
      ESP Fit Center  166 is at  -0.407507  1.115480 -2.122809
      ESP Fit Center  167 is at  -0.203753  0.762569 -2.122809
      ESP Fit Center  168 is at   0.203753  0.762569 -2.122809
      ESP Fit Center  169 is at   0.000000  1.115480 -2.165640
      ESP Fit Center  170 is at  -0.398602 -1.805879  1.584909
      ESP Fit Center  171 is at  -0.000000 -1.912684  1.584909
      ESP Fit Center  172 is at   0.398602 -1.805879  1.584909
      ESP Fit Center  173 is at  -0.979500 -1.721961  1.380033
      ESP Fit Center  174 is at  -0.694271 -2.034843  1.380033
      ESP Fit Center  175 is at  -0.315276 -2.223560  1.380033
      ESP Fit Center  176 is at   0.106299 -2.262625  1.380033
      ESP Fit Center  177 is at   0.513517 -2.146761  1.380033
      ESP Fit Center  178 is at   0.851382 -1.891617  1.380033
      ESP Fit Center  179 is at   1.074263 -1.531652  1.380033
      ESP Fit Center  180 is at  -1.397563 -1.525841  1.105856
      ESP Fit Center  181 is at  -1.225339 -1.902958  1.105856
      ESP Fit Center  182 is at  -0.953846 -2.216278  1.105856
      ESP Fit Center  183 is at  -0.605078 -2.440417  1.105856
      ESP Fit Center  184 is at  -0.207291 -2.557218  1.105856
      ESP Fit Center  185 is at   0.207291 -2.557218  1.105856
[...]
 2220 Fit      -0.157277
 2221 Fit      -0.156530
 2222 Fit      -0.155921
 2223 Fit      -0.155448
 2224 Fit      -0.155115
 2225 Fit      -0.154928
 2226 Fit      -0.154890
 2227 Fit      -0.155003
 2228 Fit      -0.155264
 2229 Fit      -0.155668
 2230 Fit      -0.156208
 2231 Fit      -0.156885
 2232 Fit      -0.157707
 2233 Fit      -0.158702
 2234 Fit      -0.159936
 2235 Fit      -0.161531
 2236 Fit      -0.165441
 2237 Fit      -0.168895
 2238 Fit      -0.168895
 2239 Fit      -0.165441
 2240 Fit      -0.162980
 2241 Fit      -0.161145
 2242 Fit      -0.159714
 2243 Fit      -0.158559
 2244 Fit      -0.157614
 2245 Fit      -0.156846
 2246 Fit      -0.156245
 2247 Fit      -0.155810
 2248 Fit      -0.155546
 2249 Fit      -0.155458
 2250 Fit      -0.155546
 2251 Fit      -0.155810
 2252 Fit      -0.156245
 2253 Fit      -0.156846
 2254 Fit      -0.157614
 2255 Fit      -0.158559
 2256 Fit      -0.159714
 2257 Fit      -0.161145
 2258 Fit      -0.162980
 2259 Fit      -0.167144
 2260 Fit      -0.170991
 2261 Fit      -0.173492
 2262 Fit      -0.168902
 2263 Fit      -0.165651
 2264 Fit      -0.163261
 2265 Fit      -0.161433
 2266 Fit      -0.159988
 2267 Fit      -0.158829
 2268 Fit      -0.157907
 2269 Fit      -0.157203
 2270 Fit      -0.156712
 2271 Fit      -0.156437
 2272 Fit      -0.156382
 2273 Fit      -0.156547
 2274 Fit      -0.156931
 2275 Fit      -0.157528
 2276 Fit      -0.158341
 2277 Fit      -0.159377
 2278 Fit      -0.160670
 2279 Fit      -0.162290
 2280 Fit      -0.164371
 2281 Fit      -0.168777
 2282 Fit      -0.173018
 2283 Fit      -0.179000
 2284 Fit      -0.175748
 2285 Fit      -0.170720
 2286 Fit      -0.167121
 2287 Fit      -0.164467
 2288 Fit      -0.162449
 2289 Fit      -0.160879
 2290 Fit      -0.159658
 2291 Fit      -0.158738
 2292 Fit      -0.158102
 2293 Fit      -0.157748
 2294 Fit      -0.157677
 2295 Fit      -0.157890
 2296 Fit      -0.158385
 2297 Fit      -0.159161
 2298 Fit      -0.160228
 2299 Fit      -0.161615
 2300 Fit      -0.163393
 2301 Fit      -0.165699
 2302 Fit      -0.170290
 2303 Fit      -0.174773
 2304 Fit      -0.180930
 2305 Fit      -0.184792
 2306 Fit      -0.177610
 2307 Fit      -0.172354
 2308 Fit      -0.168521
 2309 Fit      -0.165683
 2310 Fit      -0.163543
 2311 Fit      -0.161921
 2312 Fit      -0.160722
 2313 Fit      -0.159902
 2314 Fit      -0.159449
 2315 Fit      -0.159358
 2316 Fit      -0.159630
 2317 Fit      -0.160266
 2318 Fit      -0.161272
 2319 Fit      -0.162675
 2320 Fit      -0.164540
 2321 Fit      -0.167000
 2322 Fit      -0.171631
 2323 Fit      -0.176357
 2324 Fit      -0.182630
 2325 Fit      -0.190451
 2326 Fit      -0.190451
 2327 Fit      -0.182630
 2328 Fit      -0.176357
 2329 Fit      -0.171631
 2330 Fit      -0.168141
 2331 Fit      -0.165573
 2332 Fit      -0.163708
 2333 Fit      -0.162424
 2334 Fit      -0.161665
 2335 Fit      -0.161413
 2336 Fit      -0.161665
 2337 Fit      -0.162424
 2338 Fit      -0.163708
 2339 Fit      -0.165573
 2340 Fit      -0.168141
 2341 Fit      -0.172746
 2342 Fit      -0.177786
 2343 Fit      -0.184050
 2344 Fit      -0.190509
 2345 Fit      -0.190509
 2346 Fit      -0.184050
 2347 Fit      -0.177786
 2348 Fit      -0.172746
 2349 Fit      -0.169031
 2350 Fit      -0.166439
 2351 Fit      -0.164786
 2352 Fit      -0.163976
 2353 Fit      -0.163976
 2354 Fit      -0.164786
 2355 Fit      -0.166439
 2356 Fit      -0.169031
 2357 Fit      -0.173584
 2358 Fit      -0.178740
 2359 Fit      -0.183885
 2360 Fit      -0.186186
 2361 Fit      -0.183885
 2362 Fit      -0.178740
 2363 Fit      -0.173584
 2364 Fit      -0.169767
 2365 Fit      -0.167509
 2366 Fit      -0.166765
 2367 Fit      -0.167509
 2368 Fit      -0.169767
 2369 Fit      -0.174104
 2370 Fit      -0.178604
 2371 Fit      -0.178604
 2372 Fit      -0.174104
 2373 Fit      -0.170641
 2374 Fit      -0.170641
 2375 Fit      -0.174281
 2376 Fit      -0.138471
 2377 Fit      -0.139080
 2378 Fit      -0.140864
 2379 Fit      -0.143691
 2380 Fit      -0.147337
 2381 Fit      -0.151470
 2382 Fit      -0.153587
 2383 Fit      -0.149368
 2384 Fit      -0.145430
 2385 Fit      -0.142159
 2386 Fit      -0.139831
 2387 Fit      -0.138624
 2388 Fit      -0.138624
 2389 Fit      -0.139831
 2390 Fit      -0.142159
 2391 Fit      -0.145430
 2392 Fit      -0.149368
 2393 Fit      -0.153587
 2394 Fit      -0.151470
 2395 Fit      -0.147337
 2396 Fit      -0.143691
 2397 Fit      -0.140864
 2398 Fit      -0.139080
 2399 Fit      -0.140263
 2400 Fit      -0.140943
 2401 Fit      -0.142947
 2402 Fit      -0.146165
 2403 Fit      -0.150402
 2404 Fit      -0.150402
 2405 Fit      -0.146165
 2406 Fit      -0.142947
 2407 Fit      -0.140943
 2408 Fit      -0.140263
 2409 Fit      -0.140943
 2410 Fit      -0.142947
 2411 Fit      -0.146165
 2412 Fit      -0.150402
 2413 Fit      -0.150402
 2414 Fit      -0.146165
 2415 Fit      -0.142947
 2416 Fit      -0.140943
 2417 Fit      -0.142581
 2418 Fit      -0.143312
 2419 Fit      -0.145475
 2420 Fit      -0.148981
 2421 Fit      -0.153666
 2422 Fit      -0.151189
 2423 Fit      -0.147068
 2424 Fit      -0.144218
 2425 Fit      -0.142764
 2426 Fit      -0.142764
 2427 Fit      -0.144218
 2428 Fit      -0.147068
 2429 Fit      -0.151189
 2430 Fit      -0.153666
 2431 Fit      -0.148981
 2432 Fit      -0.145475
 2433 Fit      -0.143312
 2434 Fit      -0.145461
 2435 Fit      -0.146254
 2436 Fit      -0.148608
 2437 Fit      -0.152440
 2438 Fit      -0.154867
 2439 Fit      -0.150346
 2440 Fit      -0.147240
 2441 Fit      -0.145660
 2442 Fit      -0.145660
 2443 Fit      -0.147240
 2444 Fit      -0.150346
 2445 Fit      -0.154867
 2446 Fit      -0.152440
 2447 Fit      -0.148608
 2448 Fit      -0.146254
 2449 Fit      -0.148904
 2450 Fit      -0.149808
 2451 Fit      -0.152493
 2452 Fit      -0.156871
 2453 Fit      -0.154479
 2454 Fit      -0.150932
 2455 Fit      -0.149130
 2456 Fit      -0.149130
 2457 Fit      -0.150932
 2458 Fit      -0.154479
 2459 Fit      -0.156871
 2460 Fit      -0.152493
 2461 Fit      -0.149808
 2462 Fit      -0.152873
 2463 Fit      -0.153865
 2464 Fit      -0.156810
 2465 Fit      -0.158987
 2466 Fit      -0.155098
 2467 Fit      -0.153122
 2468 Fit      -0.153122
 2469 Fit      -0.155098
 2470 Fit      -0.158987
 2471 Fit      -0.156810
 2472 Fit      -0.153865
 2473 Fit      -0.157311
 2474 Fit      -0.158357
 2475 Fit      -0.161463
 2476 Fit      -0.159657
 2477 Fit      -0.157573
 2478 Fit      -0.157573
 2479 Fit      -0.159657
 2480 Fit      -0.161463
 2481 Fit      -0.158357
 2482 Fit      -0.162139
 2483 Fit      -0.163300
 2484 Fit      -0.164743
 2485 Fit      -0.162430
 2486 Fit      -0.162430
 2487 Fit      -0.164743
 2488 Fit      -0.163300
 2489 Fit      -0.167259
 2490 Fit      -0.168565
 2491 Fit      -0.168565
 2492 Fit      -0.167259
 2493 Fit      -0.168565
 2494 Fit      -0.168565
 2495 Fit      -0.172555
 2496 Fit      -0.172910
 2497 Fit      -0.172910
 2498 Fit      -0.177878
 2499 Fit      -0.178269
 2500 Fit      -0.178269
 2501 Fit      -0.183043
 2502 Fit      -0.187821
 2503 Fit      -0.119644
 2504 Fit      -0.119996
 2505 Fit      -0.120164
 2506 Fit      -0.120164
 2507 Fit      -0.119996
 2508 Fit      -0.120164
 2509 Fit      -0.120164
 2510 Fit      -0.121057
 2511 Fit      -0.121288
 2512 Fit      -0.121753
 2513 Fit      -0.121987
 2514 Fit      -0.121753
 2515 Fit      -0.121288
 2516 Fit      -0.121057
 2517 Fit      -0.121288
 2518 Fit      -0.121753
 2519 Fit      -0.121987
 2520 Fit      -0.121753
 2521 Fit      -0.121288
 2522 Fit      -0.122849
 2523 Fit      -0.123104
 2524 Fit      -0.123756
 2525 Fit      -0.124507
 2526 Fit      -0.125004
 2527 Fit      -0.125004
 2528 Fit      -0.124507
 2529 Fit      -0.123756
 2530 Fit      -0.123104
 2531 Fit      -0.122849
 2532 Fit      -0.123104
 2533 Fit      -0.123756
 2534 Fit      -0.124507
 2535 Fit      -0.125004
 2536 Fit      -0.125004
 2537 Fit      -0.124507
 2538 Fit      -0.123756
 2539 Fit      -0.123104
 2540 Fit      -0.125405
 2541 Fit      -0.125707
 2542 Fit      -0.126533
 2543 Fit      -0.127661
 2544 Fit      -0.128769
 2545 Fit      -0.129525
 2546 Fit      -0.129689
 2547 Fit      -0.129210
 2548 Fit      -0.128240
 2549 Fit      -0.127078
 2550 Fit      -0.126065
 2551 Fit      -0.125481
 2552 Fit      -0.125481
 2553 Fit      -0.126065
 2554 Fit      -0.127078
 2555 Fit      -0.128240
 2556 Fit      -0.129210
 2557 Fit      -0.129689
 2558 Fit      -0.129525
 2559 Fit      -0.128769
 2560 Fit      -0.127661
 2561 Fit      -0.126533
 2562 Fit      -0.125707
 2563 Fit      -0.128774
 2564 Fit      -0.129150
 2565 Fit      -0.130211
 2566 Fit      -0.131760
 2567 Fit      -0.133493
 2568 Fit      -0.135040
 2569 Fit      -0.136044
 2570 Fit      -0.136258
 2571 Fit      -0.135629
 2572 Fit      -0.134314
 2573 Fit      -0.132626
 2574 Fit      -0.130941
 2575 Fit      -0.129604
 2576 Fit      -0.128869
 2577 Fit      -0.128869
 2578 Fit      -0.129604
 2579 Fit      -0.130941
 2580 Fit      -0.132626
 2581 Fit      -0.134314
 2582 Fit      -0.135629
 2583 Fit      -0.136258
 2584 Fit      -0.136044
 2585 Fit      -0.135040
 2586 Fit      -0.133493
 2587 Fit      -0.131760
 2588 Fit      -0.130211
 2589 Fit      -0.129150
 2590 Fit      -0.133023
 2591 Fit      -0.133481
 2592 Fit      -0.134798
 2593 Fit      -0.136806
 2594 Fit      -0.139228
 2595 Fit      -0.141693
 2596 Fit      -0.143780
 2597 Fit      -0.145097
 2598 Fit      -0.145375
 2599 Fit      -0.144556
 2600 Fit      -0.142810
 2601 Fit      -0.140481
 2602 Fit      -0.137987
 2603 Fit      -0.135731
 2604 Fit      -0.134040
 2605 Fit      -0.133138
 2606 Fit      -0.133138
 2607 Fit      -0.134040
 2608 Fit      -0.135731
 2609 Fit      -0.137987
 2610 Fit      -0.140481
 2611 Fit      -0.142810
 2612 Fit      -0.144556
 2613 Fit      -0.145375
 2614 Fit      -0.145097
 2615 Fit      -0.143780
 2616 Fit      -0.141693
 2617 Fit      -0.139228
 2618 Fit      -0.136806
 2619 Fit      -0.134798
 2620 Fit      -0.133481
 -----------------------------------------------------------------
 Leave Link  602 at Tue Sep 30 16:58:55 2025, MaxMem=  4294967296 cpu:               1.2 elap:               0.1
 (Enter /software/sse/easybuild/prefix/software/Gaussian/16.C.01-avx2-nsc1/g16/l701.exe)
 ... and contract with generalized density number  0.
 Compute integral first derivatives.
 Leave Link  701 at Tue Sep 30 16:58:55 2025, MaxMem=  4294967296 cpu:               1.9 elap:               0.1
 (Enter /software/sse/easybuild/prefix/software/Gaussian/16.C.01-avx2-nsc1/g16/l702.exe)
 L702 exits ... SP integral derivatives will be done elsewhere.
 Leave Link  702 at Tue Sep 30 16:58:55 2025, MaxMem=  4294967296 cpu:               0.3 elap:               0.0
 (Enter /software/sse/easybuild/prefix/software/Gaussian/16.C.01-avx2-nsc1/g16/l703.exe)
 Integral derivatives from FoFJK, PRISM(SPDF).
 Compute integral first derivatives, UseDBF=F ICtDFT=           0.
 Calling FoFJK, ICntrl=      2127 FMM=F ISym2X=1 I1Cent= 0 IOpClX= 0 NMat=1 NMatS=1 NMatT=0.
 FoFJK:  IHMeth= 1 ICntrl=    2127 DoSepK=F KAlg= 0 I1Cent=           0 FoldK=F
 IRaf=         0 NMat=       1 IRICut=       1 DoRegI=T DoRafI=F ISym2E= 1 IDoP0=0 IntGTp=1.
 FoFCou: FMM=F IPFlag=           0 FMFlag=      100000 FMFlg1=         800
         NFxFlg=           0 DoJE=F BraDBF=F KetDBF=F FulRan=T
         wScrn=  0.000000 ICntrl=      2127 IOpCl=  0 I1Cent=           0 NGrid=           0
         NMat0=    1 NMatS0=      1 NMatT0=    0 NMatD0=    1 NMtDS0=    0 NMtDT0=    0
 Petite list used in FoFCou.
 Leave Link  703 at Tue Sep 30 16:58:56 2025, MaxMem=  4294967296 cpu:              14.1 elap:               0.9
 (Enter /software/sse/easybuild/prefix/software/Gaussian/16.C.01-avx2-nsc1/g16/l716.exe)
 Dipole        = 2.02240724D-16-4.75206743D-32 6.80964900D-01
 ***** Axes restored to original set *****
 -------------------------------------------------------------------
 Center     Atomic                   Forces (Hartrees/Bohr)
 Number     Number              X              Y              Z
 -------------------------------------------------------------------
      1        8           0.000000000   -0.000001312    0.000000567
      2        8           0.000000000    0.000001312    0.000000567
      3        6          -0.000000000   -0.000000000   -0.000003834
      4        1           0.000000000   -0.000000000    0.000002699
 -------------------------------------------------------------------
 Cartesian Forces:  Max     0.000003834 RMS     0.000001474
 Leave Link  716 at Tue Sep 30 16:58:56 2025, MaxMem=  4294967296 cpu:               0.4 elap:               0.0
 (Enter /software/sse/easybuild/prefix/software/Gaussian/16.C.01-avx2-nsc1/g16/l103.exe)

 GradGradGradGradGradGradGradGradGradGradGradGradGradGradGradGradGradGrad
 Berny optimization.
 FormGI is forming the generalized inverse of G from B-inverse, IUseBI=4.
 Internal  Forces:  Max     0.000002699 RMS     0.000001275
 Search for a local minimum.
 Step number   1 out of a maximum of   20
 All quantities printed in internal units (Hartrees-Bohrs-Radians)
 RMS Force = .12749D-05 SwitMx=.10000D-02 MixMth= 2
 Mixed Optimization -- En-DIIS/RFO-DIIS
 Second derivative matrix not updated -- first step.
 The second derivative matrix:
                          R1        R2        R3        A1        A2
           R1           0.91538
           R2           0.00000   0.91538
           R3           0.00000   0.00000   0.31582
           A1           0.00000   0.00000   0.00000   0.25000
           A2           0.00000   0.00000   0.00000   0.00000   0.16000
           A3           0.00000   0.00000   0.00000   0.00000   0.00000
           D1           0.00000   0.00000   0.00000   0.00000   0.00000
                          A3        D1
           A3           0.16000
           D1           0.00000   0.00230
 ITU=  0
     Eigenvalues ---    0.00230   0.16000   0.22000   0.31582   0.91538
     Eigenvalues ---    0.91538
 RFO step:  Lambda= 0.00000000D+00 EMin= 2.30000000D-03
 Linear search not attempted -- first point.
 Iteration  1 RMS(Cart)=  0.00000284 RMS(Int)=  0.00000000
 Iteration  2 RMS(Cart)=  0.00000000 RMS(Int)=  0.00000000
 ITry= 1 IFail=0 DXMaxC= 6.22D-06 DCOld= 1.00D+10 DXMaxT= 3.00D-01 DXLimC= 3.00D+00 Rises=F
 ClnCor:  largest displacement from symmetrization is 1.11D-12 for atom     3.
 Variable       Old X    -DE/DX   Delta X   Delta X   Delta X     New X
                                 (Linear)    (Quad)   (Total)
    R1        2.32232  -0.00000   0.00000  -0.00000  -0.00000   2.32232
    R2        2.32232  -0.00000   0.00000  -0.00000  -0.00000   2.32232
    R3        2.11615   0.00000   0.00000   0.00001   0.00001   2.11616
    A1        2.27550  -0.00000   0.00000  -0.00000  -0.00000   2.27550
    A2        2.00384   0.00000   0.00000   0.00000   0.00000   2.00384
    A3        2.00384   0.00000   0.00000   0.00000   0.00000   2.00384
    D1        3.14159   0.00000   0.00000   0.00000   0.00000   3.14159
         Item               Value     Threshold  Converged?
 Maximum Force            0.000003     0.000015     YES
 RMS     Force            0.000001     0.000010     YES
 Maximum Displacement     0.000006     0.000060     YES
 RMS     Displacement     0.000003     0.000040     YES
 Predicted change in Energy=-1.377890D-11
 Optimization completed.
    -- Stationary point found.
                           ----------------------------
                           !   Optimized Parameters   !
                           ! (Angstroms and Degrees)  !
 --------------------------                            --------------------------
 ! Name  Definition              Value          Derivative Info.                !
 --------------------------------------------------------------------------------
 ! R1    R(1,3)                  1.2289         -DE/DX =    0.0                 !
 ! R2    R(2,3)                  1.2289         -DE/DX =    0.0                 !
 ! R3    R(3,4)                  1.1198         -DE/DX =    0.0                 !
 ! A1    A(1,3,2)              130.3766         -DE/DX =    0.0                 !
 ! A2    A(1,3,4)              114.8117         -DE/DX =    0.0                 !
 ! A3    A(2,3,4)              114.8117         -DE/DX =    0.0                 !
 ! D1    D(1,3,4,2)            180.0            -DE/DX =    0.0                 !
 --------------------------------------------------------------------------------
 Lowest energy point so far.  Saving SCF results.
 Largest change from initial coordinates is atom    0       0.000 Angstoms.
 GradGradGradGradGradGradGradGradGradGradGradGradGradGradGradGradGradGrad

 Leave Link  103 at Tue Sep 30 16:58:56 2025, MaxMem=  4294967296 cpu:               0.7 elap:               0.1
 (Enter /software/sse/easybuild/prefix/software/Gaussian/16.C.01-avx2-nsc1/g16/l202.exe)
                          Input orientation:                          
 ---------------------------------------------------------------------
 Center     Atomic      Atomic             Coordinates (Angstroms)
 Number     Number       Type             X           Y           Z
 ---------------------------------------------------------------------
      1          8           0        0.000000    1.115480   -0.205640
      2          8           0       -0.000000   -1.115480   -0.205640
      3          6           0        0.000000    0.000000    0.310060
      4          1           0        0.000000    0.000000    1.429880
 ---------------------------------------------------------------------
                    Distance matrix (angstroms):
                    1          2          3          4
     1  O    0.000000
     2  O    2.230960   0.000000
     3  C    1.228919   1.228919   0.000000
     4  H    1.979702   1.979702   1.119820   0.000000
 Stoichiometry    CHO2(1-)
 Framework group  C2V[C2(CH),SGV(O2)]
 Deg. of freedom     3
 Full point group                 C2V     NOp   4
 RotChk:  IX=0 Diff= 6.90D-16
 Largest Abelian subgroup         C2V     NOp   4
 Largest concise Abelian subgroup C2      NOp   2
                         Standard orientation:                         
 ---------------------------------------------------------------------
 Center     Atomic      Atomic             Coordinates (Angstroms)
 Number     Number       Type             X           Y           Z
 ---------------------------------------------------------------------
      1          8           0        0.000000    1.115480   -0.205640
      2          8           0       -0.000000   -1.115480   -0.205640
      3          6           0        0.000000    0.000000    0.310060
      4          1           0        0.000000    0.000000    1.429880
 ---------------------------------------------------------------------
 Rotational constants (GHZ):         111.7505513          12.6964323          11.4011065
 Leave Link  202 at Tue Sep 30 16:58:56 2025, MaxMem=  4294967296 cpu:               0.1 elap:               0.0
 (Enter /software/sse/easybuild/prefix/software/Gaussian/16.C.01-avx2-nsc1/g16/l9999.exe)

 Test job not archived.
 1\1\NSC-N1091\FOpt\RHF\Aug-CC-pVTZ\C1H1O2(1-)\X_DAVVA\30-Sep-2025\0\\#
 P HF/aug-cc-pvtz Opt=tight Pop=(MK,Hirshfeld) iop(6/33=2) iop(6/42=6) 
 maxdisk=128GB\\formate\\-1,1\O,0.,1.11548,-0.20564\O,0.,-1.11548,-0.20
 564\C,0.,0.,0.31006\H,0.,0.,1.42988\\Version=ES64L-G16RevC.01\State=1-
 A1\HF=-188.2760204\RMSD=6.841e-09\RMSF=1.474e-06\Dipole=0.,0.,0.680964
 9\Quadrupole=2.9726137,-4.8458484,1.8732347,0.,0.,0.\PG=C02V [C2(C1H1)
 ,SGV(O2)]\\@


 YOU KNOW YOU'RE A TEACHER WHEN YOU SAY 2, WRITE 3, AND MEAN 4.
 -- RONALD ANSTROM, HIGH SCHOOL TEACHER, UNDERWOOD, N.D. 1974
 Job cpu time:       0 days  0 hours  0 minutes 49.5 seconds.
 Elapsed time:       0 days  0 hours  0 minutes  3.6 seconds.
 File lengths (MBytes):  RWF=     14 Int=      0 D2E=      0 Chk=      8 Scr=      1
 Normal termination of Gaussian 16 at Tue Sep 30 16:58:56 2025.
