 Entering Gaussian System, Link 0=/software/sse/easybuild/prefix/software/Gaussian/16.C.01-avx2-nsc1/g16/g16.orig
 Input=potassium-ion.wrap
 Output=potassium-ion.log
 Initial command:
 /software/sse/easybuild/prefix/software/Gaussian/16.C.01-avx2-nsc1/g16/l1.exe "/scratch/local/Gau-2823825.inp" -scrdir="/scratch/local/"
 Entering Link 1 = /software/sse/easybuild/prefix/software/Gaussian/16.C.01-avx2-nsc1/g16/l1.exe PID=   2823826.
  
 Copyright (c) 1988-2019, Gaussian, Inc.  All Rights Reserved.
  
 This is part of the Gaussian(R) 16 program.  It is based on
 the Gaussian(R) 09 system (copyright 2009, Gaussian, Inc.),
 the Gaussian(R) 03 system (copyright 2003, Gaussian, Inc.),
 the Gaussian(R) 98 system (copyright 1998, Gaussian, Inc.),
 the Gaussian(R) 94 system (copyright 1995, Gaussian, Inc.),
 the Gaussian 92(TM) system (copyright 1992, Gaussian, Inc.),
 the Gaussian 90(TM) system (copyright 1990, Gaussian, Inc.),
 the Gaussian 88(TM) system (copyright 1988, Gaussian, Inc.),
 the Gaussian 86(TM) system (copyright 1986, Carnegie Mellon
 University), and the Gaussian 82(TM) system (copyright 1983,
 Carnegie Mellon University). Gaussian is a federally registered
 trademark of Gaussian, Inc.
  
 This software contains proprietary and confidential information,
 including trade secrets, belonging to Gaussian, Inc.
  
 This software is provided under written license and may be
 used, copied, transmitted, or stored only in accord with that
 written license.
  
 The following legend is applicable only to US Government
 contracts under FAR:
  
                    RESTRICTED RIGHTS LEGEND
  
 Use, reproduction and disclosure by the US Government is
 subject to restrictions as set forth in subparagraphs (a)
 and (c) of the Commercial Computer Software - Restricted
 Rights clause in FAR 52.227-19.
  
 Gaussian, Inc.
 340 Quinnipiac St., Bldg. 40, Wallingford CT 06492
  
  
 ---------------------------------------------------------------
 Warning -- This program may not be used in any manner that
 competes with the business of Gaussian, Inc. or will provide
 assistance to any competitor of Gaussian, Inc.  The licensee
 of this program is prohibited from giving any competitor of
 Gaussian, Inc. access to this program.  By using this program,
 the user acknowledges that Gaussian, Inc. is engaged in the
 business of creating and licensing software in the field of
 computational chemistry and represents and warrants to the
 licensee that it is not a competitor of Gaussian, Inc. and that
 it will not use this program in any manner prohibited above.
 ---------------------------------------------------------------
  

 Cite this work as:
 Gaussian 16, Revision C.01,
 M. J. Frisch, G. W. Trucks, H. B. Schlegel, G. E. Scuseria, 
 M. A. Robb, J. R. Cheeseman, G. Scalmani, V. Barone, 
 G. A. Petersson, H. Nakatsuji, X. Li, M. Caricato, A. V. Marenich, 
 J. Bloino, B. G. Janesko, R. Gomperts, B. Mennucci, H. P. Hratchian, 
 J. V. Ortiz, A. F. Izmaylov, J. L. Sonnenberg, D. Williams-Young, 
 F. Ding, F. Lipparini, F. Egidi, J. Goings, B. Peng, A. Petrone, 
 T. Henderson, D. Ranasinghe, V. G. Zakrzewski, J. Gao, N. Rega, 
 G. Zheng, W. Liang, M. Hada, M. Ehara, K. Toyota, R. Fukuda, 
 J. Hasegawa, M. Ishida, T. Nakajima, Y. Honda, O. Kitao, H. Nakai, 
 T. Vreven, K. Throssell, J. A. Montgomery, Jr., J. E. Peralta, 
 F. Ogliaro, M. J. Bearpark, J. J. Heyd, E. N. Brothers, K. N. Kudin, 
 V. N. Staroverov, T. A. Keith, R. Kobayashi, J. Normand, 
 K. Raghavachari, A. P. Rendell, J. C. Burant, S. S. Iyengar, 
 J. Tomasi, M. Cossi, J. M. Millam, M. Klene, C. Adamo, R. Cammi, 
 J. W. Ochterski, R. L. Martin, K. Morokuma, O. Farkas, 
 J. B. Foresman, and D. J. Fox, Gaussian, Inc., Wallingford CT, 2019.
 
 ******************************************
 Gaussian 16:  ES64L-G16RevC.01  3-Jul-2019
                30-Sep-2025 
 ******************************************
 %mem=12000MB
 %nprocshared=16
 Will use up to   16 processors via shared memory.
 %mem=32Gb
 %chk=potassium-ion.chk
 ----------------------------------------------------------------------
 #P MP2/gen Opt=tight density=MP2 Pop=(MK,Hirshfeld,ReadRadii) iop(6/33
 =2) iop(6/42=6) maxdisk=128GB
 ----------------------------------------------------------------------
 1/7=10,18=20,19=15,38=1/1,3;
 2/9=110,12=2,17=6,18=5,40=1/2;
 3/5=7,11=9,25=1,30=1,71=1/1,2,3;
 4//1;
 5/5=2,38=5/2;
 8/6=4,10=1/1;
 9/15=2,16=-3/6;
 10/5=1/2;
 6/7=2,8=2,9=2,10=2,15=8,20=101,22=2,33=2,42=6,79=1/1,2;
 7/12=2/1,2,3,16;
 1/7=10,18=20,19=15/3(2);
 2/9=110/2;
 99//99;
 2/9=110/2;
 3/5=7,6=1,11=9,25=1,30=1,71=1,82=7/1,2,3;
 4/5=5,16=3,69=1/1;
 5/5=2,38=5/2;
 8/6=4,10=1/1;
 9/15=2,16=-3/6;
 10/5=1/2;
 7/12=2/1,2,3,16;
 1/7=10,18=20,19=15/3(-8);
 2/9=110/2;
 6/7=2,8=2,9=2,10=2,15=8,20=101,22=2,33=2,42=6,79=1/1,2;
 99/9=10/99;
 Leave Link    1 at Tue Sep 30 19:49:52 2025, MaxMem=  4294967296 cpu:               0.7 elap:               0.1
 (Enter /software/sse/easybuild/prefix/software/Gaussian/16.C.01-avx2-nsc1/g16/l101.exe)
 -------------
 potassium-ion
 -------------
 Symbolic Z-matrix:
 Charge =  1 Multiplicity = 1
 K                     0.        0.        0. 
 
 ITRead=  0
 MicOpt= -1
 NAtoms=      1 NQM=        1 NQMF=       0 NMMI=      0 NMMIF=      0
                NMic=       0 NMicF=      0.
                    Isotopes and Nuclear Properties:
 (Nuclear quadrupole moments (NQMom) in fm**2, nuclear magnetic moments (NMagM)
  in nuclear magnetons)

  Atom         1
 IAtWgt=          39
 AtmWgt=  38.9637079
 NucSpn=           3
 AtZEff=  -0.0000000
 NQMom=    5.8500000
 NMagM=    0.3914660
 AtZNuc=  19.0000000
 Leave Link  101 at Tue Sep 30 19:49:52 2025, MaxMem=  4294967296 cpu:               5.2 elap:               0.3
 (Enter /software/sse/easybuild/prefix/software/Gaussian/16.C.01-avx2-nsc1/g16/l103.exe)

 GradGradGradGradGradGradGradGradGradGradGradGradGradGradGradGradGradGrad
 Berny optimization.
 Initialization pass.
 No Z-matrix variables, so optimization will use Cartesian coordinates.
 Trust Radius=3.00D-01 FncErr=1.00D-07 GrdErr=1.00D-07 EigMax=2.50D+02 EigMin=1.00D-04
 Number of steps in this run=     20 maximum allowed number of steps=    100.
 GradGradGradGradGradGradGradGradGradGradGradGradGradGradGradGradGradGrad

 Leave Link  103 at Tue Sep 30 19:49:53 2025, MaxMem=  4294967296 cpu:               0.3 elap:               0.0
 (Enter /software/sse/easybuild/prefix/software/Gaussian/16.C.01-avx2-nsc1/g16/l202.exe)
                          Input orientation:                          
 ---------------------------------------------------------------------
 Center     Atomic      Atomic             Coordinates (Angstroms)
 Number     Number       Type             X           Y           Z
 ---------------------------------------------------------------------
      1         19           0        0.000000    0.000000    0.000000
 ---------------------------------------------------------------------
 Stoichiometry    K(1+)
 Framework group  OH[O(K)]
 Deg. of freedom     0
 Full point group                 OH      NOp  48
 Largest Abelian subgroup         D2H     NOp   8
 Largest concise Abelian subgroup C1      NOp   1
                         Standard orientation:                         
 ---------------------------------------------------------------------
 Center     Atomic      Atomic             Coordinates (Angstroms)
 Number     Number       Type             X           Y           Z
 ---------------------------------------------------------------------
      1         19           0        0.000000    0.000000    0.000000
 ---------------------------------------------------------------------
 Leave Link  202 at Tue Sep 30 19:49:53 2025, MaxMem=  4294967296 cpu:               0.4 elap:               0.0
 (Enter /software/sse/easybuild/prefix/software/Gaussian/16.C.01-avx2-nsc1/g16/l301.exe)
 General basis read from cards:  (5D, 7F)
 Centers:       1
 S 8 1.00
     Exponent=  1.5397618325D+05 Coefficients=  2.3662636107D-04
     Exponent=  2.3082497672D+04 Coefficients=  1.8342929137D-03
     Exponent=  5.2532344745D+03 Coefficients=  9.5310527769D-03
     Exponent=  1.4869550133D+03 Coefficients=  3.8638406980D-02
     Exponent=  4.8406333726D+02 Coefficients=  1.2480768502D-01
     Exponent=  1.7356653980D+02 Coefficients=  2.9278861009D-01
     Exponent=  6.7116381464D+01 Coefficients=  4.0633425860D-01
     Exponent=  2.6339502054D+01 Coefficients=  2.0077215860D-01
 S 4 1.00
     Exponent=  1.7287693567D+02 Coefficients= -2.4200960936D-02
     Exponent=  5.3058649063D+01 Coefficients= -1.1553095040D-01
     Exponent=  7.9212753964D+00 Coefficients=  5.7455545175D-01
     Exponent=  3.2108880472D+00 Coefficients=  5.7023185107D-01
 S 2 1.00
     Exponent=  4.5662070895D+00 Coefficients= -2.2615763466D-01
     Exponent=  7.0209907282D-01 Coefficients=  7.5528392045D-01
 S 1 1.00
     Exponent=  2.8258942635D-01 Coefficients=  1.0000000000D+00
 S 1 1.00
     Exponent=  3.5805824617D-02 Coefficients=  1.0000000000D+00
 S 1 1.00
     Exponent=  1.5819213245D-02 Coefficients=  1.0000000000D+00
 P 6 1.00
     Exponent=  7.2818449873D+02 Coefficients=  2.6150689792D-03
     Exponent=  1.7213265061D+02 Coefficients=  2.0673630835D-02
     Exponent=  5.4829847075D+01 Coefficients=  9.3205603870D-02
     Exponent=  2.0166266494D+01 Coefficients=  2.5436518210D-01
     Exponent=  7.8610728806D+00 Coefficients=  3.9131132810D-01
     Exponent=  3.1105213132D+00 Coefficients=  2.2481345943D-01
 P 3 1.00
     Exponent=  1.1757337492D+01 Coefficients= -2.5777289217D-02
     Exponent=  1.5139617411D+00 Coefficients=  5.7359428604D-01
     Exponent=  5.8328591795D-01 Coefficients=  1.0798320002D+00
 P 1 1.00
     Exponent=  2.1570478076D-01 Coefficients=  1.0000000000D+00
 P 1 1.00
     Exponent=  4.1737000000D-02 Coefficients=  1.0000000000D+00
 D 1 1.00
     Exponent=  9.3000000000D-01 Coefficients=  1.0000000000D+00
 D 1 1.00
     Exponent=  1.8000000000D-01 Coefficients=  1.0000000000D+00
 D 1 1.00
     Exponent=  5.4000000000D-02 Coefficients=  1.0000000000D+00
 ****
 Ernie: Thresh=  0.10000D-02 Tol=  0.10000D-05 Strict=F.
 There are    15 symmetry adapted cartesian basis functions of AG  symmetry.
 There are     3 symmetry adapted cartesian basis functions of B1G symmetry.
 There are     3 symmetry adapted cartesian basis functions of B2G symmetry.
 There are     3 symmetry adapted cartesian basis functions of B3G symmetry.
 There are     0 symmetry adapted cartesian basis functions of AU  symmetry.
 There are     4 symmetry adapted cartesian basis functions of B1U symmetry.
 There are     4 symmetry adapted cartesian basis functions of B2U symmetry.
 There are     4 symmetry adapted cartesian basis functions of B3U symmetry.
 There are    12 symmetry adapted basis functions of AG  symmetry.
 There are     3 symmetry adapted basis functions of B1G symmetry.
 There are     3 symmetry adapted basis functions of B2G symmetry.
 There are     3 symmetry adapted basis functions of B3G symmetry.
 There are     0 symmetry adapted basis functions of AU  symmetry.
 There are     4 symmetry adapted basis functions of B1U symmetry.
 There are     4 symmetry adapted basis functions of B2U symmetry.
 There are     4 symmetry adapted basis functions of B3U symmetry.
    33 basis functions,    68 primitive gaussians,    36 cartesian basis functions
     9 alpha electrons        9 beta electrons
       nuclear repulsion energy         0.0000000000 Hartrees.
 IExCor=    0 DFT=F Ex=HF Corr=None ExCW=0 ScaHFX=  1.000000
 ScaDFX=  1.000000  1.000000  1.000000  1.000000 ScalE2=  1.000000  1.000000
 IRadAn=      5 IRanWt=     -1 IRanGd=            0 ICorTp=0 IEmpDi=  4
 NAtoms=    1 NActive=    1 NUniq=    1 SFac= 1.00D+00 NAtFMM=   60 NAOKFM=F Big=F
 Integral buffers will be    131072 words long.
 Raffenetti 1 integral format.
 Two-electron integral symmetry is turned on.
 Leave Link  301 at Tue Sep 30 19:49:53 2025, MaxMem=  4294967296 cpu:               1.2 elap:               0.2
 (Enter /software/sse/easybuild/prefix/software/Gaussian/16.C.01-avx2-nsc1/g16/l302.exe)
 NPDir=0 NMtPBC=     1 NCelOv=     1 NCel=       1 NClECP=     1 NCelD=      1
         NCelK=      1 NCelE2=     1 NClLst=     1 CellRange=     0.0.
 One-electron integrals computed using PRISM.
 One-electron integral symmetry used in STVInt
 NBasis=    33 RedAO= T EigKep=  5.62D-02  NBF=    12     3     3     3     0     4     4     4
 NBsUse=    33 1.00D-06 EigRej= -1.00D+00 NBFU=    12     3     3     3     0     4     4     4
 Leave Link  302 at Tue Sep 30 19:49:54 2025, MaxMem=  4294967296 cpu:               1.7 elap:               0.1
 (Enter /software/sse/easybuild/prefix/software/Gaussian/16.C.01-avx2-nsc1/g16/l303.exe)
 DipDrv:  MaxL=1.
 Leave Link  303 at Tue Sep 30 19:49:54 2025, MaxMem=  4294967296 cpu:               0.6 elap:               0.1
 (Enter /software/sse/easybuild/prefix/software/Gaussian/16.C.01-avx2-nsc1/g16/l401.exe)
 ExpMin= 1.58D-02 ExpMax= 1.54D+05 ExpMxC= 5.25D+03 IAcc=3 IRadAn=         5 AccDes= 0.00D+00
 Harris functional with IExCor=  205 and IRadAn=       5 diagonalized for initial guess.
 HarFok:  IExCor=  205 AccDes= 0.00D+00 IRadAn=         5 IDoV= 1 UseB2=F ITyADJ=14
 ICtDFT=  3500011 ScaDFX=  1.000000  1.000000  1.000000  1.000000
 FoFCou: FMM=F IPFlag=           0 FMFlag=      100000 FMFlg1=           0
         NFxFlg=           0 DoJE=T BraDBF=F KetDBF=T FulRan=T
         wScrn=  0.000000 ICntrl=       500 IOpCl=  0 I1Cent=   200000004 NGrid=           0
         NMat0=    1 NMatS0=      1 NMatT0=    0 NMatD0=    1 NMtDS0=    0 NMtDT0=    0
 Petite list used in FoFCou.
 Harris En= -598.376020831401    
 JPrj=0 DoOrth=F DoCkMO=F.
 Initial guess orbital symmetries:
       Occupied  (A1G) (A1G) (T1U) (T1U) (T1U) (A1G) (T1U) (T1U)
                 (T1U)
       Virtual   (A1G) (T1U) (T1U) (T1U) (A1G) (T2G) (T2G) (T2G)
                 (EG) (EG) (T2G) (T2G) (T2G) (EG) (EG) (T1U) (T1U)
                 (T1U) (A1G) (T2G) (T2G) (T2G) (EG) (EG)
 The electronic state of the initial guess is 1-A1G.
 Leave Link  401 at Tue Sep 30 19:49:55 2025, MaxMem=  4294967296 cpu:               2.2 elap:               0.2
 (Enter /software/sse/easybuild/prefix/software/Gaussian/16.C.01-avx2-nsc1/g16/l502.exe)
 Keep R1 ints in memory in symmetry-blocked form, NReq=3465362.
 FoFCou: FMM=F IPFlag=           0 FMFlag=           0 FMFlg1=           0
         NFxFlg=           0 DoJE=F BraDBF=F KetDBF=F FulRan=T
         wScrn=  0.000000 ICntrl=       600 IOpCl=  0 I1Cent=           0 NGrid=           0
         NMat0=    1 NMatS0=    561 NMatT0=    0 NMatD0=    1 NMtDS0=    0 NMtDT0=    0
 Petite list used in FoFCou.
 Closed shell SCF:
 Using DIIS extrapolation, IDIIS=  1040.
 NGot=  4294967296 LenX=  4294935785 LenY=  4294934048
 Requested convergence on RMS density matrix=1.00D-08 within 128 cycles.
 Requested convergence on MAX density matrix=1.00D-06.
 Requested convergence on             energy=1.00D-06.
 No special actions if energy rises.

 Cycle   1  Pass 1  IDiag  1:
 E= -598.990031934321    
 DIIS: error= 6.26D-02 at cycle   1 NSaved=   1.
 NSaved= 1 IEnMin= 1 EnMin= -598.990031934321     IErMin= 1 ErrMin= 6.26D-02
 ErrMax= 6.26D-02  0.00D+00 EMaxC= 1.00D-01 BMatC= 6.32D-02 BMatP= 6.32D-02
 IDIUse=3 WtCom= 3.74D-01 WtEn= 6.26D-01
 Coeff-Com:  0.100D+01
 Coeff-En:   0.100D+01
 Coeff:      0.100D+01
 Gap=     1.059 Goal=   None    Shift=    0.000
 GapD=    1.059 DampG=2.000 DampE=0.500 DampFc=1.0000 IDamp=-1.
 RMSDP=4.56D-03 MaxDP=4.96D-02              OVMax= 1.36D-02

 Cycle   2  Pass 1  IDiag  1:
 E= -599.005684911736     Delta-E=       -0.015652977415 Rises=F Damp=F
 DIIS: error= 3.24D-03 at cycle   2 NSaved=   2.
 NSaved= 2 IEnMin= 2 EnMin= -599.005684911736     IErMin= 2 ErrMin= 3.24D-03
 ErrMax= 3.24D-03  0.00D+00 EMaxC= 1.00D-01 BMatC= 4.27D-04 BMatP= 6.32D-02
 IDIUse=3 WtCom= 9.68D-01 WtEn= 3.24D-02
 Coeff-Com:  0.456D-01 0.954D+00
 Coeff-En:   0.000D+00 0.100D+01
 Coeff:      0.441D-01 0.956D+00
 Gap=     1.020 Goal=   None    Shift=    0.000
 RMSDP=8.98D-04 MaxDP=1.03D-02 DE=-1.57D-02 OVMax= 5.12D-04

 Cycle   3  Pass 1  IDiag  1:
 E= -599.006025039734     Delta-E=       -0.000340127999 Rises=F Damp=F
 DIIS: error= 3.78D-04 at cycle   3 NSaved=   3.
 NSaved= 3 IEnMin= 3 EnMin= -599.006025039734     IErMin= 3 ErrMin= 3.78D-04
 ErrMax= 3.78D-04  0.00D+00 EMaxC= 1.00D-01 BMatC= 6.07D-06 BMatP= 4.27D-04
 IDIUse=3 WtCom= 9.96D-01 WtEn= 3.78D-03
 Coeff-Com: -0.632D-02 0.356D-01 0.971D+00
 Coeff-En:   0.000D+00 0.000D+00 0.100D+01
 Coeff:     -0.630D-02 0.355D-01 0.971D+00
 Gap=     1.024 Goal=   None    Shift=    0.000
 RMSDP=7.33D-05 MaxDP=8.96D-04 DE=-3.40D-04 OVMax= 2.71D-04

 Cycle   4  Pass 1  IDiag  1:
 E= -599.006030706822     Delta-E=       -0.000005667088 Rises=F Damp=F
 DIIS: error= 3.71D-05 at cycle   4 NSaved=   4.
 NSaved= 4 IEnMin= 4 EnMin= -599.006030706822     IErMin= 4 ErrMin= 3.71D-05
 ErrMax= 3.71D-05  0.00D+00 EMaxC= 1.00D-01 BMatC= 5.43D-08 BMatP= 6.07D-06
 IDIUse=1 WtCom= 1.00D+00 WtEn= 0.00D+00
 Coeff-Com:  0.676D-03-0.144D-01-0.125D+00 0.114D+01
 Coeff:      0.676D-03-0.144D-01-0.125D+00 0.114D+01
 Gap=     1.024 Goal=   None    Shift=    0.000
 RMSDP=1.20D-05 MaxDP=1.42D-04 DE=-5.67D-06 OVMax= 2.33D-05

 Cycle   5  Pass 1  IDiag  1:
 E= -599.006030784328     Delta-E=       -0.000000077506 Rises=F Damp=F
 DIIS: error= 1.64D-06 at cycle   5 NSaved=   5.
 NSaved= 5 IEnMin= 5 EnMin= -599.006030784328     IErMin= 5 ErrMin= 1.64D-06
 ErrMax= 1.64D-06  0.00D+00 EMaxC= 1.00D-01 BMatC= 4.28D-11 BMatP= 5.43D-08
 IDIUse=1 WtCom= 1.00D+00 WtEn= 0.00D+00
 Coeff-Com: -0.167D-04 0.447D-03 0.369D-02-0.542D-01 0.105D+01
 Coeff:     -0.167D-04 0.447D-03 0.369D-02-0.542D-01 0.105D+01
 Gap=     1.024 Goal=   None    Shift=    0.000
 RMSDP=2.97D-07 MaxDP=5.59D-06 DE=-7.75D-08 OVMax= 1.03D-06

 Cycle   6  Pass 1  IDiag  1:
 E= -599.006030784373     Delta-E=       -0.000000000045 Rises=F Damp=F
 DIIS: error= 1.48D-07 at cycle   6 NSaved=   6.
 NSaved= 6 IEnMin= 6 EnMin= -599.006030784373     IErMin= 6 ErrMin= 1.48D-07
 ErrMax= 1.48D-07  0.00D+00 EMaxC= 1.00D-01 BMatC= 3.42D-13 BMatP= 4.28D-11
 IDIUse=1 WtCom= 1.00D+00 WtEn= 0.00D+00
 Coeff-Com:  0.143D-05-0.485D-04-0.359D-03 0.719D-02-0.189D+00 0.118D+01
 Coeff:      0.143D-05-0.485D-04-0.359D-03 0.719D-02-0.189D+00 0.118D+01
 Gap=     1.024 Goal=   None    Shift=    0.000
 RMSDP=2.67D-08 MaxDP=5.15D-07 DE=-4.46D-11 OVMax= 2.28D-07

 Cycle   7  Pass 1  IDiag  1:
 E= -599.006030784374     Delta-E=       -0.000000000001 Rises=F Damp=F
 DIIS: error= 3.33D-09 at cycle   7 NSaved=   7.
 NSaved= 7 IEnMin= 7 EnMin= -599.006030784374     IErMin= 7 ErrMin= 3.33D-09
 ErrMax= 3.33D-09  0.00D+00 EMaxC= 1.00D-01 BMatC= 2.16D-16 BMatP= 3.42D-13
 IDIUse=1 WtCom= 1.00D+00 WtEn= 0.00D+00
 Coeff-Com: -0.515D-07 0.153D-05 0.146D-04-0.278D-03 0.748D-02-0.624D-01
 Coeff-Com:  0.106D+01
 Coeff:     -0.515D-07 0.153D-05 0.146D-04-0.278D-03 0.748D-02-0.624D-01
 Coeff:      0.106D+01
 Gap=     1.024 Goal=   None    Shift=    0.000
 RMSDP=6.30D-10 MaxDP=1.39D-08 DE=-1.36D-12 OVMax= 2.92D-09

 SCF Done:  E(RHF) =  -599.006030784     A.U. after    7 cycles
            NFock=  7  Conv=0.63D-09     -V/T= 2.0000
 KE= 5.990180044783D+02 PE=-1.418742290356D+03 EE= 2.207182550932D+02
 Leave Link  502 at Tue Sep 30 19:49:56 2025, MaxMem=  4294967296 cpu:               2.4 elap:               0.2
 (Enter /software/sse/easybuild/prefix/software/Gaussian/16.C.01-avx2-nsc1/g16/l801.exe)
 Range of M.O.s used for correlation:    10    33
 NBasis=    33 NAE=     9 NBE=     9 NFC=     9 NFV=     0
 NROrb=     24 NOA=     0 NOB=     0 NVA=    24 NVB=    24
 *** There is no correlation energy for this system ***
 Leave Link  801 at Tue Sep 30 19:49:56 2025, MaxMem=  4294967296 cpu:               0.7 elap:               0.1
 (Enter /software/sse/easybuild/prefix/software/Gaussian/16.C.01-avx2-nsc1/g16/l906.exe)
 Frozen-core derivative calculation, NFC=   9 NFV=   0.
 FulOut=F Deriv=T AODrv=T NAtomX=     1
   MMem=       10312  MDisk=           0 MDiskD=           1
  W3Min=       10692 MinDsk=       73022 NBas6D=          36
 NBas2D=         723    NTT=         666    LW2=     2040000
    MDV=  4294941572 MDiskM=     1656227 NBas2p=         723
 Fully direct method using O(ONN) memory.
 No occupied orbitals for this spin space.
 Spin components of T(2) and E(2):
     alpha-alpha T2 =       0.0000000000D+00 E2=      0.0000000000D+00
     alpha-beta  T2 =       0.0000000000D+00 E2=      0.0000000000D+00
     beta-beta   T2 =       0.0000000000D+00 E2=      0.0000000000D+00
 The integrals were generated   0 times.
 ANorm=    0.1000000000D+01
 E2 =     0.0000000000D+00 EUMP2 =    -0.59900603078437D+03
 Leave Link  906 at Tue Sep 30 19:49:56 2025, MaxMem=  4294967296 cpu:               0.6 elap:               0.1
 (Enter /software/sse/easybuild/prefix/software/Gaussian/16.C.01-avx2-nsc1/g16/l1002.exe)
 Minotr:  Closed shell wavefunction.
          Computing MP2/KS-MP2 derivatives.
          Using Z-Vector for PSCF gradient.
          Skipping F1 and S1 gradient terms here.
          IDoAtm=1
          Frozen-core window.
          Direct CPHF calculation.
          Differentiating once with respect to electric field.
                with respect to dipole field.
          Differentiating once with respect to nuclear coordinates.
          Using symmetry in CPHF.
          Requested convergence is 1.0D-10 RMS, and 1.0D-09 maximum.
          NewPWx=F KeepS1=T KeepF1=T KeepIn=T MapXYZ=F SortEE=F KeepMc=T.
 Keep R1 ints in memory in symmetry-blocked form, NReq=3465787.
 FoFCou: FMM=F IPFlag=           0 FMFlag=           0 FMFlg1=           0
         NFxFlg=           0 DoJE=F BraDBF=F KetDBF=F FulRan=T
         wScrn=  0.000000 ICntrl=       600 IOpCl=  0 I1Cent=           0 NGrid=           0
         NMat0=    1 NMatS0=    561 NMatT0=    0 NMatD0=    1 NMtDS0=    0 NMtDT0=    0
 Petite list used in FoFCou.
          MDV=    4294967296 using IRadAn=       5.
          Solving linear equations separately, MaxMat=       0.
          There are     1 degrees of freedom in the 1st order CPHF.  IDoFFX=0 NUNeed=     1.
 FoF2E skips out because all densities are zero.
 LinEq1:  Iter=  0 NonCon=     0 RMS=0.00D+00 Max=0.00D+00 NDo=     0
 FoF2E skips out because all densities are zero.
 End of Minotr F.D. properties file   721 does not exist.
 End of Minotr F.D. properties file   722 does not exist.
 End of Minotr F.D. properties file   788 does not exist.
 Leave Link 1002 at Tue Sep 30 19:49:57 2025, MaxMem=  4294967296 cpu:               4.6 elap:               0.3
 (Enter /software/sse/easybuild/prefix/software/Gaussian/16.C.01-avx2-nsc1/g16/l601.exe)
 Copying SCF densities to generalized density rwf, IOpCl= 0 IROHF=0.
 SCF density gives NOpUse= 48 NOpAll= 48.

 **********************************************************************

            Population analysis using the MP2 Density.

 **********************************************************************

 Orbital symmetries:
 BldTbl:  Degeneracy threshold= 1.00D-02
       Occupied  (A1G) (A1G) (T1U) (T1U) (T1U) (A1G) (T1U) (T1U)
                 (T1U)
       Virtual   (A1G) (T1U) (T1U) (T1U) (A1G) (EG) (EG) (T2G)
                 (T2G) (T2G) (T2G) (T2G) (EG) (T2G) (EG) (T1U)
                 (T1U) (T1U) (A1G) (EG) (EG) (T2G) (T2G) (T2G)
 The electronic state is 1-A1G.
 Alpha  occ. eigenvalues -- -133.75007 -14.70691 -11.73681 -11.73681 -11.73681
 Alpha  occ. eigenvalues --   -1.96401  -1.17083  -1.17083  -1.17083
 Alpha virt. eigenvalues --   -0.14702  -0.08230  -0.08230  -0.08230  -0.04566
 Alpha virt. eigenvalues --   -0.02188  -0.02188  -0.02188  -0.02188  -0.02188
 Alpha virt. eigenvalues --    0.20041   0.20041   0.20041   0.20041   0.20041
 Alpha virt. eigenvalues --    0.60708   0.60708   0.60708   0.94262   1.19050
 Alpha virt. eigenvalues --    1.19050   1.19050   1.19050   1.19050
          Condensed to atoms (all electrons):
               1
     1  K   18.000000
 Mulliken charges:
               1
     1  K    1.000000
 Sum of Mulliken charges =   1.00000
 Mulliken charges with hydrogens summed into heavy atoms:
               1
     1  K    1.000000
 DipInt: DoE/N= T F RetVal/Mat= T F Init=T NMatP=  1 IDeriv=0 Min/MaxMlt=  0  4
 Entering OneElI...
 OneElI was handed  4294963145 working-precision words.
 Multipole integrals L=0 to 4 MinM= 0 MaxM= 0.
 Requested accuracy = 0.1000D-12
 ShPair: Thresh= 1.00D-13 NBox=     0 BxSize= 0.00D+00 RnKept= 0.00D+00
         NSMCal=                   91 NSMKep=                  91
 PrmmSu-InSpLW:  IPartL=    0 NPrtUS=    1 NPrtUL=    1 DoSpLW=F IThBeg=    0 IThEnd=    0 NThAct=    1.
 PrSmSu:  IncTry=   512 NBBP=             91 NTPThr=   100 NPartT=    1 Incr=           1 LDynOK=F GPUOK=F.
 PrsmSu:  NPrtUS=   1 ThrOK=F IAlg=2 LenDen=           0 ISkipM=0 DoSpLW=F IThBeg=    0 IThEnd=    0.
 Prism:   IPart=     0 DynPar=F LinDyn=F Incr=           1.
 PRISM was handed  4294947342 working-precision words and    91 shell-pairs
 IPart=  0 NShTot=          91 NBatch=          30 AvBLen=         3.0
 PrsmSu-ThDecC:  IPartSL=    0    0 NPrtUSL=    1    1 IThBeg=    0 IThEnd=    0 CPU=   -1 GPU=   -1 NThAct=    1.
 PrSmSu:  NxtVal=              2.
 Electronic moments (au):
        -18.00000000         -0.00000000         -0.00000000         -0.00000000
         -6.52549309         -6.52549309         -6.52549309          0.00000000
         -0.00000000          0.00000000         -0.00000000         -0.00000000
         -0.00000000         -0.00000000         -0.00000000         -0.00000000
         -0.00000000         -0.00000000         -0.00000000         -0.00000000
        -15.00427861        -15.00427861        -15.00427861          0.00000000
         -0.00000000          0.00000000          0.00000000         -0.00000000
          0.00000000         -5.00142620         -5.00142620         -5.00142620
          0.00000000         -0.00000000          0.00000000
 Electronic spatial extent (au):  <R**2>=             19.5765
 DipInt: DoE/N= F T RetVal/Mat= T F Init=T NMatP=  1 IDeriv=0 Min/MaxMlt=  0  4
 Nuclear    moments (au):
         19.00000000          0.00000000          0.00000000          0.00000000
          0.00000000          0.00000000          0.00000000          0.00000000
          0.00000000          0.00000000          0.00000000          0.00000000
          0.00000000          0.00000000          0.00000000          0.00000000
          0.00000000          0.00000000          0.00000000          0.00000000
          0.00000000          0.00000000          0.00000000          0.00000000
          0.00000000          0.00000000          0.00000000          0.00000000
          0.00000000          0.00000000          0.00000000          0.00000000
          0.00000000          0.00000000          0.00000000
 Total      moments (au):
          1.00000000          0.00000000          0.00000000          0.00000000
         -6.52549309         -6.52549309         -6.52549309          0.00000000
         -0.00000000          0.00000000          0.00000000          0.00000000
          0.00000000          0.00000000          0.00000000          0.00000000
          0.00000000          0.00000000          0.00000000          0.00000000
        -15.00427861        -15.00427861        -15.00427861          0.00000000
         -0.00000000          0.00000000          0.00000000         -0.00000000
          0.00000000         -5.00142620         -5.00142620         -5.00142620
          0.00000000         -0.00000000          0.00000000
 Traceless Quadrup. (au):
          0.00000000         -0.00000000         -0.00000000          0.00000000
         -0.00000000          0.00000000
 Charge=              1.0000 electrons
 Dipole moment (field-independent basis, Debye):
    X=              0.0000    Y=              0.0000    Z=              0.0000  Tot=              0.0000
 Quadrupole moment (field-independent basis, Debye-Ang):
   XX=             -8.7770   YY=             -8.7770   ZZ=             -8.7770
   XY=              0.0000   XZ=             -0.0000   YZ=              0.0000
 Traceless Quadrupole moment (field-independent basis, Debye-Ang):
   XX=              0.0000   YY=              0.0000   ZZ=              0.0000
   XY=              0.0000   XZ=             -0.0000   YZ=              0.0000
 Octapole moment (field-independent basis, Debye-Ang**2):
  XXX=              0.0000  YYY=              0.0000  ZZZ=              0.0000  XYY=              0.0000
  XXY=              0.0000  XXZ=              0.0000  XZZ=              0.0000  YZZ=              0.0000
  YYZ=              0.0000  XYZ=              0.0000
 Hexadecapole moment (field-independent basis, Debye-Ang**3):
 XXXX=             -5.6513 YYYY=             -5.6513 ZZZZ=             -5.6513 XXXY=              0.0000
 XXXZ=             -0.0000 YYYX=              0.0000 YYYZ=              0.0000 ZZZX=             -0.0000
 ZZZY=              0.0000 XXYY=             -1.8838 XXZZ=             -1.8838 YYZZ=             -1.8838
 XXYZ=              0.0000 YYXZ=             -0.0000 ZZXY=              0.0000
 N-N= 0.000000000000D+00 E-N=-1.418742290262D+03  KE= 5.990180044783D+02
 Symmetry AG   KE= 4.110068268876D+02
 Symmetry B1G  KE= 4.443286050114D-61
 Symmetry B2G  KE= 4.606613893561D-61
 Symmetry B3G  KE= 3.596460969268D-61
 Symmetry AU   KE= 0.000000000000D+00
 Symmetry B1U  KE= 6.267039253021D+01
 Symmetry B2U  KE= 6.267039253021D+01
 Symmetry B3U  KE= 6.267039253021D+01
 SetAtRh:  ITypeU=  23 NETotI=      -1 ICharg=  0 NETot=      19.
 StAtR1:  I=    1 I1=    1 IA= 19 C=  19.0 OKShel=TTTTTT
                                                  SSPSPS
                                                  226261
          I=    1 IA= 19 I1=    1 NAtG=29 NE=  19.000 C=  19.000 Err= 8.73D-11
 Pruned (  99, 590) grid will be used in numerical quadrature.
 IPart=  0 IRanGd=          0 ScrnBf=T ScrnGd=T RCrit=4.00D+00 DoMicB=T.
 CutRad = 1000.00    CtRdIn =    0.00    XCrit =  15.00   ICut = 0
 Pruned (  99, 590) grid will be used in numerical quadrature.
 IPart=  0 Atom number   1 atomic number 19 has       29144 grid points.
 IPart=  0 Atom   1 batch    1 overlaps    1 atoms,    13 shells and     1 DB shells.   NGrid=      1032
 Pruned (  99, 590) grid will be used in numerical quadrature.
 Symmetry reduced    86 angular points to    86 for atom    1.
 IPart=  1 IRanGd=          0 ScrnBf=T ScrnGd=T RCrit=4.00D+00 DoMicB=T.
 Pruned (  99, 590) grid will be used in numerical quadrature.
 CutRad = 1000.00    CtRdIn =    0.00    XCrit =  15.00   ICut = 0
 Pruned (  99, 590) grid will be used in numerical quadrature.
 IPart= 10 IRanGd=          0 ScrnBf=T ScrnGd=T RCrit=4.00D+00 DoMicB=T.
 CutRad = 1000.00    CtRdIn =    0.00    XCrit =  15.00   ICut = 0
 Pruned (  99, 590) grid will be used in numerical quadrature.
 IPart= 15 IRanGd=          0 ScrnBf=T ScrnGd=T RCrit=4.00D+00 DoMicB=T.
 Pruned (  99, 590) grid will be used in numerical quadrature.
 IPart=  1 Atom number   1 atomic number 19 has       29144 grid points.
 IPart= 10 Atom number   1 atomic number 19 has       29144 grid points.
 Pruned (  99, 590) grid will be used in numerical quadrature.
 IPart= 10 Atom   1 batch    3 overlaps    1 atoms,    13 shells and     1 DB shells.   NGrid=      1812
 Pruned (  99, 590) grid will be used in numerical quadrature.
 Pruned (  99, 590) grid will be used in numerical quadrature.
 Pruned (  99, 590) grid will be used in numerical quadrature.
 Symmetry reduced   302 angular points to   302 for atom    1.
 IPart=  9 IRanGd=          0 ScrnBf=T ScrnGd=T RCrit=4.00D+00 DoMicB=T.
 CutRad = 1000.00    CtRdIn =    0.00    XCrit =  15.00   ICut = 0
 Pruned (  99, 590) grid will be used in numerical quadrature.
 Pruned (  99, 590) grid will be used in numerical quadrature.
 IPart= 11 IRanGd=          0 ScrnBf=T ScrnGd=T RCrit=4.00D+00 DoMicB=T.
 Pruned (  99, 590) grid will be used in numerical quadrature.
 Pruned (  99, 590) grid will be used in numerical quadrature.
 IPart=  6 IRanGd=          0 ScrnBf=T ScrnGd=T RCrit=4.00D+00 DoMicB=T.
 Pruned (  99, 590) grid will be used in numerical quadrature.
 Pruned (  99, 590) grid will be used in numerical quadrature.
 IPart= 13 IRanGd=          0 ScrnBf=T ScrnGd=T RCrit=4.00D+00 DoMicB=T.
 Pruned (  99, 590) grid will be used in numerical quadrature.
 CutRad = 1000.00    CtRdIn =    0.00    XCrit =  15.00   ICut = 0
 CutRad = 1000.00    CtRdIn =    0.00    XCrit =  15.00   ICut = 0
 IPart=  7 IRanGd=          0 ScrnBf=T ScrnGd=T RCrit=4.00D+00 DoMicB=T.
 Pruned (  99, 590) grid will be used in numerical quadrature.
 IPart=  4 IRanGd=          0 ScrnBf=T ScrnGd=T RCrit=4.00D+00 DoMicB=T.
 CutRad = 1000.00    CtRdIn =    0.00    XCrit =  15.00   ICut = 0
 IPart= 15 Atom number   1 atomic number 19 has       29144 grid points.
 IPart=  9 Atom number   1 atomic number 19 has       29144 grid points.
 IPart= 15 Atom   1 batch    5 overlaps    1 atoms,    13 shells and     1 DB shells.   NGrid=      1180
 Pruned (  99, 590) grid will be used in numerical quadrature.
 CutRad = 1000.00    CtRdIn =    0.00    XCrit =  15.00   ICut = 0
 CutRad = 1000.00    CtRdIn =    0.00    XCrit =  15.00   ICut = 0
 Pruned (  99, 590) grid will be used in numerical quadrature.
 Pruned (  99, 590) grid will be used in numerical quadrature.
 Symmetry reduced   590 angular points to   590 for atom    1.
 IPart=  1 Atom   1 batch    2 overlaps    1 atoms,    13 shells and     1 DB shells.   NGrid=      2328
 IPart=  3 IRanGd=          0 ScrnBf=T ScrnGd=T RCrit=4.00D+00 DoMicB=T.
 IPart=  6 Atom number   1 atomic number 19 has       29144 grid points.
 IPart=  4 Atom number   1 atomic number 19 has       29144 grid points.
 IPart=  6 Atom   1 batch    9 overlaps    1 atoms,    12 shells and     1 DB shells.   NGrid=      1180
 IPart=  4 Atom   1 batch    7 overlaps    1 atoms,    12 shells and     1 DB shells.   NGrid=      1180
 Symmetry reduced   194 angular points to   194 for atom    1.
 Pruned (  99, 590) grid will be used in numerical quadrature.
 IPart= 12 IRanGd=          0 ScrnBf=T ScrnGd=T RCrit=4.00D+00 DoMicB=T.
 CutRad = 1000.00    CtRdIn =    0.00    XCrit =  15.00   ICut = 0
 IPart=  8 IRanGd=          0 ScrnBf=T ScrnGd=T RCrit=4.00D+00 DoMicB=T.
 CutRad = 1000.00    CtRdIn =    0.00    XCrit =  15.00   ICut = 0
 CutRad = 1000.00    CtRdIn =    0.00    XCrit =  15.00   ICut = 0
 IPart=  9 Atom   1 batch    4 overlaps    1 atoms,    13 shells and     1 DB shells.   NGrid=      1180
 IPart= 14 IRanGd=          0 ScrnBf=T ScrnGd=T RCrit=4.00D+00 DoMicB=T.
 Pruned (  99, 590) grid will be used in numerical quadrature.
 Symmetry reduced   590 angular points to   590 for atom    1.
 CutRad = 1000.00    CtRdIn =    0.00    XCrit =  15.00   ICut = 0
 Pruned (  99, 590) grid will be used in numerical quadrature.
 Pruned (  99, 590) grid will be used in numerical quadrature.
 IPart=  7 Atom number   1 atomic number 19 has       29144 grid points.
 IPart= 11 Atom number   1 atomic number 19 has       29144 grid points.
 IPart=  7 Atom   1 batch   10 overlaps    1 atoms,    12 shells and     1 DB shells.   NGrid=      1180
 IPart= 13 Atom number   1 atomic number 19 has       29144 grid points.
 IPart=  2 IRanGd=          0 ScrnBf=T ScrnGd=T RCrit=4.00D+00 DoMicB=T.
 IPart= 13 Atom   1 batch    6 overlaps    1 atoms,    12 shells and     1 DB shells.   NGrid=      1180
 Symmetry reduced   590 angular points to   590 for atom    1.
 IPart=  5 IRanGd=          0 ScrnBf=T ScrnGd=T RCrit=4.00D+00 DoMicB=T.
 CutRad = 1000.00    CtRdIn =    0.00    XCrit =  15.00   ICut = 0
 CutRad = 1000.00    CtRdIn =    0.00    XCrit =  15.00   ICut = 0
 Symmetry reduced   590 angular points to   590 for atom    1.
 Symmetry reduced   590 angular points to   590 for atom    1.
 Pruned (  99, 590) grid will be used in numerical quadrature.
 Pruned (  99, 590) grid will be used in numerical quadrature.
 CutRad = 1000.00    CtRdIn =    0.00    XCrit =  15.00   ICut = 0
 IPart=  2 Atom number   1 atomic number 19 has       29144 grid points.
 Pruned (  99, 590) grid will be used in numerical quadrature.
 Pruned (  99, 590) grid will be used in numerical quadrature.
 Pruned (  99, 590) grid will be used in numerical quadrature.
 IPart= 12 Atom number   1 atomic number 19 has       29144 grid points.
 IPart=  3 Atom number   1 atomic number 19 has       29144 grid points.
 IPart= 12 Atom   1 batch   12 overlaps    1 atoms,    11 shells and     1 DB shells.   NGrid=      1180
 IPart=  3 Atom   1 batch   16 overlaps    1 atoms,    10 shells and     1 DB shells.   NGrid=      1180
 IPart=  2 Atom   1 batch   14 overlaps    1 atoms,    10 shells and     1 DB shells.   NGrid=      1180
 Symmetry reduced   590 angular points to   590 for atom    1.
 Symmetry reduced   590 angular points to   590 for atom    1.
 IPart= 11 Atom   1 batch    8 overlaps    1 atoms,    12 shells and     1 DB shells.   NGrid=      1180
 Symmetry reduced   590 angular points to   590 for atom    1.
 Symmetry reduced   590 angular points to   590 for atom    1.
 IPart= 14 Atom number   1 atomic number 19 has       29144 grid points.
 IPart= 14 Atom   1 batch   13 overlaps    1 atoms,    10 shells and     1 DB shells.   NGrid=      1180
 Pruned (  99, 590) grid will be used in numerical quadrature.
 Symmetry reduced   590 angular points to   590 for atom    1.
 IPart=  8 Atom number   1 atomic number 19 has       29144 grid points.
 Symmetry reduced   590 angular points to   590 for atom    1.
 IPart=  5 Atom number   1 atomic number 19 has       29144 grid points.
 IPart=  8 Atom   1 batch   11 overlaps    1 atoms,    12 shells and     1 DB shells.   NGrid=      1180
 IPart=  5 Atom   1 batch   15 overlaps    1 atoms,    10 shells and     1 DB shells.   NGrid=      1180
 Symmetry reduced   590 angular points to   590 for atom    1.
 Symmetry reduced   590 angular points to   590 for atom    1.
 IPart=  0 Atom   1 batch   17 overlaps    1 atoms,     8 shells and     1 DB shells.   NGrid=      1180
 Symmetry reduced   590 angular points to   590 for atom    1.
 IPart= 15 Atom   1 batch   18 overlaps    1 atoms,     7 shells and     1 DB shells.   NGrid=      1180
 IPart= 10 Atom   1 batch   19 overlaps    1 atoms,     7 shells and     1 DB shells.   NGrid=      1180
 Symmetry reduced   590 angular points to   590 for atom    1.
 IPart=  9 Atom   1 batch   20 overlaps    1 atoms,     6 shells and     1 DB shells.   NGrid=      1180
 IPart=  6 Atom   1 batch   21 overlaps    1 atoms,     4 shells and     1 DB shells.   NGrid=       590
 IPart= 13 Atom   1 batch   23 overlaps    1 atoms,     4 shells and     1 DB shells.   NGrid=       604
 IPart=  4 Atom   1 batch   22 overlaps    1 atoms,     4 shells and     1 DB shells.   NGrid=       604
 Symmetry reduced   302 angular points to   302 for atom    1.
 Symmetry reduced   302 angular points to   302 for atom    1.
 IPart=  7 Atom   1 batch   24 overlaps    1 atoms,     4 shells and     1 DB shells.   NGrid=       604
 IPart= 12 Atom   1 batch   25 overlaps    1 atoms,     1 shells and     0 DB shells.   NGrid=       604
 Symmetry reduced   302 angular points to   302 for atom    1.
 Symmetry reduced   302 angular points to   302 for atom    1.
 IPart= 11 Atom   1 batch   26 overlaps    1 atoms,     1 shells and     0 DB shells.   NGrid=       604
 IPart= 14 Atom   1 batch   27 overlaps    1 atoms,     0 shells and     0 DB shells.   NGrid=       302
 Symmetry reduced   302 angular points to   302 for atom    1.
 There are a total of       28842 grid points.
 ElSum from          density=       17.9999996864
 ElSum from atomic densities=       19.0000662039

 Hirshfeld populations at iteration   1 (CX, CA, CB, DipXYZ):
               1          2          3          4          5          6
     1  K    0.000000   9.000000   9.000000   0.000000  -0.000000   0.000000
       Tot   0.000000   9.000000   9.000000   0.000000  -0.000000   0.000000

 Dip from Atomic Chgs              0.000000   0.000000   0.000000
         Total Dipole              0.000000  -0.000000   0.000000

 Hirshfeld charges, spin densities, dipoles, and CM5 charges using IRadAn=      5:
              Q-H        S-H        Dx         Dy         Dz        Q-CM5   
     1  K    1.000000   0.000000   0.000000  -0.000000   0.000000   1.000000
       Tot   1.000000   0.000000   0.000000  -0.000000   0.000000   1.000000
 Hirshfeld charges with hydrogens summed into heavy atoms:
              Q-H       Q-CM5   
     1  K    1.000000   1.000000
 
 EQQ=  0.00000000000     EQD=  0.00000000000     EDD=  0.00000000000    
 EQQ+QD+DD=  0.00000000000    
 
 Entering OneElI...
 OneElI was handed  4294963959 working-precision words.
 Calculate electrostatic properties
    NBasis =    33  MinDer = 0  MaxDer = 0
    NGrid  =     1  NMatD  =   1
 Requested accuracy = 0.1000D-12
 ShPair: Thresh= 1.00D-13 NBox=     0 BxSize= 0.00D+00 RnKept= 0.00D+00
         NSMCal=                   91 NSMKep=                  67
 PrmmSu-InSpLW:  IPartL=    0 NPrtUS=   16 NPrtUL=    1 DoSpLW=F IThBeg=    0 IThEnd=   15 NThAct=   16.
 PrSmSu:  IncTry=   512 NBBP=             67 NTPThr=   100 NPartT=   16 Incr=           1 LDynOK=F GPUOK=F.
 PrsmSu:  NPrtUS=  16 ThrOK=T IAlg=2 LenDen=           0 ISkipM=0 DoSpLW=F IThBeg=    0 IThEnd=   15.
 Prism:   IPart=     0 DynPar=F LinDyn=F Incr=           1.
 PRISM was handed   268430087 working-precision words and    67 shell-pairs
 PRISM was handed   268430087 working-precision words and    67 shell-pairs
 PRISM was handed   268430087 working-precision words and    67 shell-pairs
 PRISM was handed   268430087 working-precision words and    67 shell-pairs
 PRISM was handed   268430087 working-precision words and    67 shell-pairs
 PRISM was handed   268430087 working-precision words and    67 shell-pairs
 PRISM was handed   268430087 working-precision words and    67 shell-pairs
 PRISM was handed   268430087 working-precision words and    67 shell-pairs
 PRISM was handed   268430087 working-precision words and    67 shell-pairs
 PRISM was handed   268430087 working-precision words and    67 shell-pairs
 PRISM was handed   268430087 working-precision words and    67 shell-pairs
 PRISM was handed   268430087 working-precision words and    67 shell-pairs
 PRISM was handed   268430087 working-precision words and    67 shell-pairs
 PRISM was handed   268430087 working-precision words and    67 shell-pairs
 PRISM was handed   268430087 working-precision words and    67 shell-pairs
 PRISM was handed   268430087 working-precision words and    67 shell-pairs
 IPart= 11 NShTot=           0 NBatch=           0 AvBLen=         0.0
 PrsmSu-ThDecC:  IPartSL=   11    0 NPrtUSL=   16    1 IThBeg=    0 IThEnd=   15 CPU=   -1 GPU=   -1 NThAct=   16.
 IPart=  7 NShTot=           0 NBatch=           0 AvBLen=         0.0
 IPart= 14 NShTot=           0 NBatch=           0 AvBLen=         0.0
 PrsmSu-ThDecC:  IPartSL=    7    0 NPrtUSL=   16    1 IThBeg=    0 IThEnd=   15 CPU=   -1 GPU=   -1 NThAct=   15.
 PrsmSu-ThDecC:  IPartSL=   14    0 NPrtUSL=   16    1 IThBeg=    0 IThEnd=   15 CPU=   -1 GPU=   -1 NThAct=   14.
 IPart= 15 NShTot=           0 NBatch=           0 AvBLen=         0.0
 IPart=  9 NShTot=           0 NBatch=           0 AvBLen=         0.0
 IPart= 10 NShTot=           0 NBatch=           0 AvBLen=         0.0
 PrsmSu-ThDecC:  IPartSL=   15    0 NPrtUSL=   16    1 IThBeg=    0 IThEnd=   15 CPU=   -1 GPU=   -1 NThAct=   13.
 PrsmSu-ThDecC:  IPartSL=    9    0 NPrtUSL=   16    1 IThBeg=    0 IThEnd=   15 CPU=   -1 GPU=   -1 NThAct=   12.
 IPart=  6 NShTot=           0 NBatch=           0 AvBLen=         0.0
 IPart=  5 NShTot=           3 NBatch=           3 AvBLen=         1.0
 IPart= 12 NShTot=           0 NBatch=           0 AvBLen=         0.0
 PrsmSu-ThDecC:  IPartSL=   10    0 NPrtUSL=   16    1 IThBeg=    0 IThEnd=   15 CPU=   -1 GPU=   -1 NThAct=   11.
 PrsmSu-ThDecC:  IPartSL=   12    0 NPrtUSL=   16    1 IThBeg=    0 IThEnd=   15 CPU=   -1 GPU=   -1 NThAct=   10.
 IPart=  1 NShTot=          19 NBatch=          19 AvBLen=         1.0
 IPart=  0 NShTot=          25 NBatch=          25 AvBLen=         1.0
 IPart=  8 NShTot=           0 NBatch=           0 AvBLen=         0.0
 IPart= 13 NShTot=           0 NBatch=           0 AvBLen=         0.0
 IPart=  2 NShTot=          11 NBatch=          11 AvBLen=         1.0
 IPart=  3 NShTot=           6 NBatch=           6 AvBLen=         1.0
 IPart=  4 NShTot=           3 NBatch=           3 AvBLen=         1.0
 PrsmSu-ThDecC:  IPartSL=    5    0 NPrtUSL=   16    1 IThBeg=    0 IThEnd=   15 CPU=   -1 GPU=   -1 NThAct=    9.
 PrsmSu-ThDecC:  IPartSL=    1    0 NPrtUSL=   16    1 IThBeg=    0 IThEnd=   15 CPU=   -1 GPU=   -1 NThAct=    8.
 PrsmSu-ThDecC:  IPartSL=   13    0 NPrtUSL=   16    1 IThBeg=    0 IThEnd=   15 CPU=   -1 GPU=   -1 NThAct=    7.
 PrsmSu-ThDecC:  IPartSL=    0    0 NPrtUSL=   16    1 IThBeg=    0 IThEnd=   15 CPU=   -1 GPU=   -1 NThAct=    6.
 PrsmSu-ThDecC:  IPartSL=    4    0 NPrtUSL=   16    1 IThBeg=    0 IThEnd=   15 CPU=   -1 GPU=   -1 NThAct=    5.
 PrsmSu-ThDecC:  IPartSL=    2    0 NPrtUSL=   16    1 IThBeg=    0 IThEnd=   15 CPU=   -1 GPU=   -1 NThAct=    4.
 PrsmSu-ThDecC:  IPartSL=    6    0 NPrtUSL=   16    1 IThBeg=    0 IThEnd=   15 CPU=   -1 GPU=   -1 NThAct=    3.
 PrsmSu-ThDecC:  IPartSL=    3    0 NPrtUSL=   16    1 IThBeg=    0 IThEnd=   15 CPU=   -1 GPU=   -1 NThAct=    2.
 PrsmSu-ThDecC:  IPartSL=    8    0 NPrtUSL=   16    1 IThBeg=    0 IThEnd=   15 CPU=   -1 GPU=   -1 NThAct=    1.
 PrSmSu:  NxtVal=             17.
 --------------------------------------------------------
       Center         ----      EFG at Nuclei      ----
                      3XX-RR        3YY-RR        3ZZ-RR
 --------------------------------------------------------
     1   Atom       -0.000000      0.000000      0.000000
 --------------------------------------------------------
                        XY            XZ            YZ
 --------------------------------------------------------
     1   Atom        0.000000      0.000000      0.000000
 --------------------------------------------------------


 ---------------------------------------------------------------------------------
              Nuclear Quadrupole Coupling Constant in Principal Axis System
 ---------------------------------------------------------------------------------

       Atom             a.u.   MegaHertz   Gauss  10(-4) cm-1        Axes

              Baa    -0.0000     0.000     0.000     0.000  1.0000  0.0000  0.0000
     1 K(39)  Bbb     0.0000    -0.000    -0.000    -0.000 -0.0000  1.0000  0.0000
              Bcc     0.0000    -0.000    -0.000    -0.000  0.0000  0.0000  1.0000
 

 ---------------------------------------------------------------------------------

 No NMR shielding tensors so no spin-rotation constants.
 Leave Link  601 at Tue Sep 30 19:49:57 2025, MaxMem=  4294967296 cpu:               1.7 elap:               0.2
 (Enter /software/sse/easybuild/prefix/software/Gaussian/16.C.01-avx2-nsc1/g16/l602.exe)
 FitSet:  NAtFit=     1 NAtPot=     1 NAtFrz=     0 MDM=     5 TotChg=   1.00000
 Merz-Kollman atomic radii used.
 Read replacement radii for each type of atom:
 Rad(19) =   1.900000000000D+00
 Rad(19) =   1.900000000000D+00
 Atom Element Radius
    1    19    1.90
 Generate VDW surfaces: Layer= 4 Dens= 6 Start= 1.400 Inc= 0.200

 **********************************************************************

            Electrostatic Properties Using The MP2 Density.

 **********************************************************************

       Atomic Center    1 is at   0.000000  0.000000  0.000000
      ESP Fit Center    2 is at   0.000000  0.000000  2.660000
      ESP Fit Center    3 is at   0.416116  0.000000  2.627251
      ESP Fit Center    4 is at   0.208058  0.360367  2.627251
      ESP Fit Center    5 is at  -0.208058  0.360367  2.627251
      ESP Fit Center    6 is at  -0.416116  0.000000  2.627251
      ESP Fit Center    7 is at  -0.208058 -0.360367  2.627251
      ESP Fit Center    8 is at   0.208058 -0.360367  2.627251
      ESP Fit Center    9 is at   0.821985  0.000000  2.529810
      ESP Fit Center   10 is at   0.711860  0.410993  2.529810
      ESP Fit Center   11 is at   0.410993  0.711860  2.529810
      ESP Fit Center   12 is at   0.000000  0.821985  2.529810
      ESP Fit Center   13 is at  -0.410993  0.711860  2.529810
      ESP Fit Center   14 is at  -0.711860  0.410993  2.529810
      ESP Fit Center   15 is at  -0.821985  0.000000  2.529810
      ESP Fit Center   16 is at  -0.711860 -0.410993  2.529810
      ESP Fit Center   17 is at  -0.410993 -0.711860  2.529810
      ESP Fit Center   18 is at  -0.000000 -0.821985  2.529810
      ESP Fit Center   19 is at   0.410993 -0.711860  2.529810
      ESP Fit Center   20 is at   0.711860 -0.410993  2.529810
      ESP Fit Center   21 is at   1.207615  0.000000  2.370077
      ESP Fit Center   22 is at   1.134787  0.413029  2.370077
      ESP Fit Center   23 is at   0.925087  0.776240  2.370077
      ESP Fit Center   24 is at   0.603807  1.045825  2.370077
      ESP Fit Center   25 is at   0.209700  1.189268  2.370077
      ESP Fit Center   26 is at  -0.209700  1.189268  2.370077
      ESP Fit Center   27 is at  -0.603807  1.045825  2.370077
      ESP Fit Center   28 is at  -0.925087  0.776240  2.370077
      ESP Fit Center   29 is at  -1.134787  0.413029  2.370077
      ESP Fit Center   30 is at  -1.207615  0.000000  2.370077
      ESP Fit Center   31 is at  -1.134787 -0.413029  2.370077
      ESP Fit Center   32 is at  -0.925087 -0.776240  2.370077
      ESP Fit Center   33 is at  -0.603807 -1.045825  2.370077
      ESP Fit Center   34 is at  -0.209700 -1.189268  2.370077
      ESP Fit Center   35 is at   0.209700 -1.189268  2.370077
      ESP Fit Center   36 is at   0.603807 -1.045825  2.370077
      ESP Fit Center   37 is at   0.925087 -0.776240  2.370077
      ESP Fit Center   38 is at   1.134787 -0.413029  2.370077
      ESP Fit Center   39 is at   1.563509  0.000000  2.151985
      ESP Fit Center   40 is at   1.505530  0.421830  2.151985
      ESP Fit Center   41 is at   1.335892  0.812374  2.151985
      ESP Fit Center   42 is at   1.067178  1.142668  2.151985
      ESP Fit Center   43 is at   0.719316  1.388216  2.151985
      ESP Fit Center   44 is at   0.318105  1.530807  2.151985
      ESP Fit Center   45 is at  -0.106698  1.559864  2.151985
      ESP Fit Center   46 is at  -0.523587  1.473233  2.151985
      ESP Fit Center   47 is at  -0.901645  1.277340  2.151985
      ESP Fit Center   48 is at  -1.212831  0.986712  2.151985
      ESP Fit Center   49 is at  -1.434068  0.622904  2.151985
      ESP Fit Center   50 is at  -1.548946  0.212898  2.151985
      ESP Fit Center   51 is at  -1.548946 -0.212898  2.151985
      ESP Fit Center   52 is at  -1.434068 -0.622904  2.151985
      ESP Fit Center   53 is at  -1.212831 -0.986712  2.151985
      ESP Fit Center   54 is at  -0.901645 -1.277340  2.151985
      ESP Fit Center   55 is at  -0.523587 -1.473233  2.151985
      ESP Fit Center   56 is at  -0.106698 -1.559864  2.151985
      ESP Fit Center   57 is at   0.318105 -1.530807  2.151985
      ESP Fit Center   58 is at   0.719316 -1.388216  2.151985
      ESP Fit Center   59 is at   1.067178 -1.142668  2.151985
      ESP Fit Center   60 is at   1.335892 -0.812374  2.151985
      ESP Fit Center   61 is at   1.505530 -0.421830  2.151985
      ESP Fit Center   62 is at   1.880904  0.000000  1.880904
      ESP Fit Center   63 is at   1.833746  0.418541  1.880904
      ESP Fit Center   64 is at   1.694636  0.816094  1.880904
      ESP Fit Center   65 is at   1.470550  1.172724  1.880904
      ESP Fit Center   66 is at   1.172724  1.470550  1.880904
      ESP Fit Center   67 is at   0.816094  1.694636  1.880904
      ESP Fit Center   68 is at   0.418541  1.833746  1.880904
      ESP Fit Center   69 is at   0.000000  1.880904  1.880904
      ESP Fit Center   70 is at  -0.418541  1.833746  1.880904
      ESP Fit Center   71 is at  -0.816094  1.694636  1.880904
      ESP Fit Center   72 is at  -1.172724  1.470550  1.880904
      ESP Fit Center   73 is at  -1.470550  1.172724  1.880904
      ESP Fit Center   74 is at  -1.694636  0.816094  1.880904
      ESP Fit Center   75 is at  -1.833746  0.418541  1.880904
      ESP Fit Center   76 is at  -1.880904  0.000000  1.880904
      ESP Fit Center   77 is at  -1.833746 -0.418541  1.880904
      ESP Fit Center   78 is at  -1.694636 -0.816094  1.880904
      ESP Fit Center   79 is at  -1.470550 -1.172724  1.880904
      ESP Fit Center   80 is at  -1.172724 -1.470550  1.880904
      ESP Fit Center   81 is at  -0.816094 -1.694636  1.880904
      ESP Fit Center   82 is at  -0.418541 -1.833746  1.880904
      ESP Fit Center   83 is at  -0.000000 -1.880904  1.880904
      ESP Fit Center   84 is at   0.418541 -1.833746  1.880904
      ESP Fit Center   85 is at   0.816094 -1.694636  1.880904
      ESP Fit Center   86 is at   1.172724 -1.470550  1.880904
      ESP Fit Center   87 is at   1.470550 -1.172724  1.880904
      ESP Fit Center   88 is at   1.694636 -0.816094  1.880904
      ESP Fit Center   89 is at   1.833746 -0.418541  1.880904
      ESP Fit Center   90 is at   2.151985  0.000000  1.563509
      ESP Fit Center   91 is at   2.110635  0.419831  1.563509
      ESP Fit Center   92 is at   1.988175  0.823529  1.563509
      ESP Fit Center   93 is at   1.789310  1.195579  1.563509
      ESP Fit Center   94 is at   1.521683  1.521683  1.563509
      ESP Fit Center   95 is at   1.195579  1.789310  1.563509
      ESP Fit Center   96 is at   0.823529  1.988175  1.563509
      ESP Fit Center   97 is at   0.419831  2.110635  1.563509
      ESP Fit Center   98 is at   0.000000  2.151985  1.563509
      ESP Fit Center   99 is at  -0.419831  2.110635  1.563509
      ESP Fit Center  100 is at  -0.823529  1.988175  1.563509
      ESP Fit Center  101 is at  -1.195579  1.789310  1.563509
      ESP Fit Center  102 is at  -1.521683  1.521683  1.563509
      ESP Fit Center  103 is at  -1.789310  1.195579  1.563509
      ESP Fit Center  104 is at  -1.988175  0.823529  1.563509
      ESP Fit Center  105 is at  -2.110635  0.419831  1.563509
      ESP Fit Center  106 is at  -2.151985  0.000000  1.563509
      ESP Fit Center  107 is at  -2.110635 -0.419831  1.563509
      ESP Fit Center  108 is at  -1.988175 -0.823529  1.563509
      ESP Fit Center  109 is at  -1.789310 -1.195579  1.563509
      ESP Fit Center  110 is at  -1.521683 -1.521683  1.563509
      ESP Fit Center  111 is at  -1.195579 -1.789310  1.563509
      ESP Fit Center  112 is at  -0.823529 -1.988175  1.563509
      ESP Fit Center  113 is at  -0.419831 -2.110635  1.563509
      ESP Fit Center  114 is at  -0.000000 -2.151985  1.563509
      ESP Fit Center  115 is at   0.419831 -2.110635  1.563509
      ESP Fit Center  116 is at   0.823529 -1.988175  1.563509
      ESP Fit Center  117 is at   1.195579 -1.789310  1.563509
      ESP Fit Center  118 is at   1.521683 -1.521683  1.563509
      ESP Fit Center  119 is at   1.789310 -1.195579  1.563509
      ESP Fit Center  120 is at   1.988175 -0.823529  1.563509
      ESP Fit Center  121 is at   2.110635 -0.419831  1.563509
      ESP Fit Center  122 is at   2.370077  0.000000  1.207615
      ESP Fit Center  123 is at   2.331989  0.423194  1.207615
      ESP Fit Center  124 is at   2.218949  0.832786  1.207615
      ESP Fit Center  125 is at   2.034590  1.215611  1.207615
      ESP Fit Center  126 is at   1.784838  1.559366  1.207615
      ESP Fit Center  127 is at   1.477719  1.853001  1.207615
      ESP Fit Center  128 is at   1.123105  2.087080  1.207615
      ESP Fit Center  129 is at   0.732394  2.254078  1.207615
      ESP Fit Center  130 is at   0.318143  2.348628  1.207615
      ESP Fit Center  131 is at  -0.106333  2.367691  1.207615
      ESP Fit Center  132 is at  -0.527392  2.310655  1.207615
      ESP Fit Center  133 is at  -0.931500  2.179352  1.207615
      ESP Fit Center  134 is at  -1.305668  1.978003  1.207615
      ESP Fit Center  135 is at  -1.637872  1.713080  1.207615
      ESP Fit Center  136 is at  -1.917433  1.393097  1.207615
      ESP Fit Center  137 is at  -2.135366  1.028338  1.207615
      ESP Fit Center  138 is at  -2.284667  0.630528  1.207615
      ESP Fit Center  139 is at  -2.360536  0.212452  1.207615
      ESP Fit Center  140 is at  -2.360536 -0.212452  1.207615
      ESP Fit Center  141 is at  -2.284667 -0.630528  1.207615
      ESP Fit Center  142 is at  -2.135366 -1.028338  1.207615
      ESP Fit Center  143 is at  -1.917433 -1.393097  1.207615
      ESP Fit Center  144 is at  -1.637872 -1.713080  1.207615
      ESP Fit Center  145 is at  -1.305668 -1.978003  1.207615
      ESP Fit Center  146 is at  -0.931500 -2.179352  1.207615
      ESP Fit Center  147 is at  -0.527392 -2.310655  1.207615
      ESP Fit Center  148 is at  -0.106333 -2.367691  1.207615
      ESP Fit Center  149 is at   0.318143 -2.348628  1.207615
      ESP Fit Center  150 is at   0.732394 -2.254078  1.207615
      ESP Fit Center  151 is at   1.123105 -2.087080  1.207615
      ESP Fit Center  152 is at   1.477719 -1.853001  1.207615
      ESP Fit Center  153 is at   1.784838 -1.559366  1.207615
      ESP Fit Center  154 is at   2.034590 -1.215611  1.207615
      ESP Fit Center  155 is at   2.218949 -0.832786  1.207615
      ESP Fit Center  156 is at   2.331989 -0.423194  1.207615
      ESP Fit Center  157 is at   2.529810  0.000000  0.821985
      ESP Fit Center  158 is at   2.495307  0.416393  0.821985
      ESP Fit Center  159 is at   2.392738  0.821428  0.821985
      ESP Fit Center  160 is at   2.224902  1.204057  0.821985
      ESP Fit Center  161 is at   1.996376  1.553842  0.821985
      ESP Fit Center  162 is at   1.713394  1.861242  0.821985
      ESP Fit Center  163 is at   1.383675  2.117872  0.821985
      ESP Fit Center  164 is at   1.016213  2.316733  0.821985
      ESP Fit Center  165 is at   0.621032  2.452399  0.821985
      ESP Fit Center  166 is at   0.208910  2.521170  0.821985
      ESP Fit Center  167 is at  -0.208910  2.521170  0.821985
      ESP Fit Center  168 is at  -0.621032  2.452399  0.821985
      ESP Fit Center  169 is at  -1.016213  2.316733  0.821985
      ESP Fit Center  170 is at  -1.383675  2.117872  0.821985
      ESP Fit Center  171 is at  -1.713394  1.861242  0.821985
      ESP Fit Center  172 is at  -1.996376  1.553842  0.821985
      ESP Fit Center  173 is at  -2.224902  1.204057  0.821985
      ESP Fit Center  174 is at  -2.392738  0.821428  0.821985
      ESP Fit Center  175 is at  -2.495307  0.416393  0.821985
      ESP Fit Center  176 is at  -2.529810  0.000000  0.821985
      ESP Fit Center  177 is at  -2.495307 -0.416393  0.821985
      ESP Fit Center  178 is at  -2.392738 -0.821428  0.821985
      ESP Fit Center  179 is at  -2.224902 -1.204057  0.821985
      ESP Fit Center  180 is at  -1.996376 -1.553842  0.821985
      ESP Fit Center  181 is at  -1.713394 -1.861242  0.821985
      ESP Fit Center  182 is at  -1.383675 -2.117872  0.821985
      ESP Fit Center  183 is at  -1.016213 -2.316733  0.821985
      ESP Fit Center  184 is at  -0.621032 -2.452399  0.821985
      ESP Fit Center  185 is at  -0.208910 -2.521170  0.821985
      ESP Fit Center  186 is at   0.208910 -2.521170  0.821985
      ESP Fit Center  187 is at   0.621032 -2.452399  0.821985
      ESP Fit Center  188 is at   1.016213 -2.316733  0.821985
      ESP Fit Center  189 is at   1.383675 -2.117872  0.821985
      ESP Fit Center  190 is at   1.713394 -1.861242  0.821985
      ESP Fit Center  191 is at   1.996376 -1.553842  0.821985
      ESP Fit Center  192 is at   2.224902 -1.204057  0.821985
      ESP Fit Center  193 is at   2.392738 -0.821428  0.821985
      ESP Fit Center  194 is at   2.495307 -0.416393  0.821985
      ESP Fit Center  195 is at   2.627251  0.000000  0.416116
      ESP Fit Center  196 is at   2.593229  0.421441  0.416116
      ESP Fit Center  197 is at   2.492043  0.831966  0.416116
      ESP Fit Center  198 is at   2.326315  1.220944  0.416116
      ESP Fit Center  199 is at   2.100337  1.578301  0.416116
      ESP Fit Center  200 is at   1.819961  1.894780  0.416116
      ESP Fit Center  201 is at   1.492449  2.162185  0.416116
      ESP Fit Center  202 is at   1.126283  2.373591  0.416116
      ESP Fit Center  203 is at   0.730947  2.523522  0.416116
      ESP Fit Center  204 is at   0.316680  2.608095  0.416116
      ESP Fit Center  205 is at  -0.105789  2.625120  0.416116
      ESP Fit Center  206 is at  -0.525518  2.574156  0.416116
      ESP Fit Center  207 is at  -0.931636  2.456522  0.416116
      ESP Fit Center  208 is at  -1.313625  2.275266  0.416116
      ESP Fit Center  209 is at  -1.661593  2.035082  0.416116
      ESP Fit Center  210 is at  -1.966526  1.742190  0.416116
      ESP Fit Center  211 is at  -2.220526  1.404176  0.416116
      ESP Fit Center  212 is at  -2.417017  1.029795  0.416116
      ESP Fit Center  213 is at  -2.550908  0.628742  0.416116
      ESP Fit Center  214 is at  -2.618732  0.211406  0.416116
      ESP Fit Center  215 is at  -2.618732 -0.211406  0.416116
      ESP Fit Center  216 is at  -2.550908 -0.628742  0.416116
      ESP Fit Center  217 is at  -2.417017 -1.029795  0.416116
      ESP Fit Center  218 is at  -2.220526 -1.404176  0.416116
      ESP Fit Center  219 is at  -1.966526 -1.742190  0.416116
      ESP Fit Center  220 is at  -1.661593 -2.035082  0.416116
      ESP Fit Center  221 is at  -1.313625 -2.275266  0.416116
      ESP Fit Center  222 is at  -0.931636 -2.456522  0.416116
      ESP Fit Center  223 is at  -0.525518 -2.574156  0.416116
      ESP Fit Center  224 is at  -0.105789 -2.625120  0.416116
      ESP Fit Center  225 is at   0.316680 -2.608095  0.416116
      ESP Fit Center  226 is at   0.730947 -2.523522  0.416116
      ESP Fit Center  227 is at   1.126283 -2.373591  0.416116
      ESP Fit Center  228 is at   1.492449 -2.162185  0.416116
      ESP Fit Center  229 is at   1.819961 -1.894780  0.416116
      ESP Fit Center  230 is at   2.100337 -1.578301  0.416116
      ESP Fit Center  231 is at   2.326315 -1.220944  0.416116
      ESP Fit Center  232 is at   2.492043 -0.831966  0.416116
      ESP Fit Center  233 is at   2.593229 -0.421441  0.416116
      ESP Fit Center  234 is at   2.660000  0.000000  0.000000
      ESP Fit Center  235 is at   2.627251  0.416116  0.000000
      ESP Fit Center  236 is at   2.529810  0.821985  0.000000
      ESP Fit Center  237 is at   2.370077  1.207615  0.000000
      ESP Fit Center  238 is at   2.151985  1.563509  0.000000
      ESP Fit Center  239 is at   1.880904  1.880904  0.000000
      ESP Fit Center  240 is at   1.563509  2.151985  0.000000
      ESP Fit Center  241 is at   1.207615  2.370077  0.000000
      ESP Fit Center  242 is at   0.821985  2.529810  0.000000
      ESP Fit Center  243 is at   0.416116  2.627251  0.000000
      ESP Fit Center  244 is at   0.000000  2.660000  0.000000
      ESP Fit Center  245 is at  -0.416116  2.627251  0.000000
      ESP Fit Center  246 is at  -0.821985  2.529810  0.000000
      ESP Fit Center  247 is at  -1.207615  2.370077  0.000000
      ESP Fit Center  248 is at  -1.563509  2.151985  0.000000
      ESP Fit Center  249 is at  -1.880904  1.880904  0.000000
      ESP Fit Center  250 is at  -2.151985  1.563509  0.000000
      ESP Fit Center  251 is at  -2.370077  1.207615  0.000000
      ESP Fit Center  252 is at  -2.529810  0.821985  0.000000
      ESP Fit Center  253 is at  -2.627251  0.416116  0.000000
      ESP Fit Center  254 is at  -2.660000  0.000000  0.000000
      ESP Fit Center  255 is at  -2.627251 -0.416116  0.000000
      ESP Fit Center  256 is at  -2.529810 -0.821985  0.000000
      ESP Fit Center  257 is at  -2.370077 -1.207615  0.000000
      ESP Fit Center  258 is at  -2.151985 -1.563509  0.000000
      ESP Fit Center  259 is at  -1.880904 -1.880904  0.000000
      ESP Fit Center  260 is at  -1.563509 -2.151985  0.000000
      ESP Fit Center  261 is at  -1.207615 -2.370077  0.000000
      ESP Fit Center  262 is at  -0.821985 -2.529810  0.000000
      ESP Fit Center  263 is at  -0.416116 -2.627251  0.000000
      ESP Fit Center  264 is at  -0.000000 -2.660000  0.000000
      ESP Fit Center  265 is at   0.416116 -2.627251  0.000000
      ESP Fit Center  266 is at   0.821985 -2.529810  0.000000
      ESP Fit Center  267 is at   1.207615 -2.370077  0.000000
      ESP Fit Center  268 is at   1.563509 -2.151985  0.000000
      ESP Fit Center  269 is at   1.880904 -1.880904  0.000000
      ESP Fit Center  270 is at   2.151985 -1.563509  0.000000
      ESP Fit Center  271 is at   2.370077 -1.207615  0.000000
      ESP Fit Center  272 is at   2.529810 -0.821985  0.000000
      ESP Fit Center  273 is at   2.627251 -0.416116  0.000000
      ESP Fit Center  274 is at   2.627251  0.000000 -0.416116
      ESP Fit Center  275 is at   2.593229  0.421441 -0.416116
      ESP Fit Center  276 is at   2.492043  0.831966 -0.416116
      ESP Fit Center  277 is at   2.326315  1.220944 -0.416116
      ESP Fit Center  278 is at   2.100337  1.578301 -0.416116
      ESP Fit Center  279 is at   1.819961  1.894780 -0.416116
      ESP Fit Center  280 is at   1.492449  2.162185 -0.416116
      ESP Fit Center  281 is at   1.126283  2.373591 -0.416116
      ESP Fit Center  282 is at   0.730947  2.523522 -0.416116
      ESP Fit Center  283 is at   0.316680  2.608095 -0.416116
      ESP Fit Center  284 is at  -0.105789  2.625120 -0.416116
      ESP Fit Center  285 is at  -0.525518  2.574156 -0.416116
      ESP Fit Center  286 is at  -0.931636  2.456522 -0.416116
      ESP Fit Center  287 is at  -1.313625  2.275266 -0.416116
      ESP Fit Center  288 is at  -1.661593  2.035082 -0.416116
      ESP Fit Center  289 is at  -1.966526  1.742190 -0.416116
      ESP Fit Center  290 is at  -2.220526  1.404176 -0.416116
      ESP Fit Center  291 is at  -2.417017  1.029795 -0.416116
      ESP Fit Center  292 is at  -2.550908  0.628742 -0.416116
      ESP Fit Center  293 is at  -2.618732  0.211406 -0.416116
      ESP Fit Center  294 is at  -2.618732 -0.211406 -0.416116
      ESP Fit Center  295 is at  -2.550908 -0.628742 -0.416116
      ESP Fit Center  296 is at  -2.417017 -1.029795 -0.416116
      ESP Fit Center  297 is at  -2.220526 -1.404176 -0.416116
      ESP Fit Center  298 is at  -1.966526 -1.742190 -0.416116
      ESP Fit Center  299 is at  -1.661593 -2.035082 -0.416116
      ESP Fit Center  300 is at  -1.313625 -2.275266 -0.416116
      ESP Fit Center  301 is at  -0.931636 -2.456522 -0.416116
      ESP Fit Center  302 is at  -0.525518 -2.574156 -0.416116
      ESP Fit Center  303 is at  -0.105789 -2.625120 -0.416116
      ESP Fit Center  304 is at   0.316680 -2.608095 -0.416116
      ESP Fit Center  305 is at   0.730947 -2.523522 -0.416116
      ESP Fit Center  306 is at   1.126283 -2.373591 -0.416116
      ESP Fit Center  307 is at   1.492449 -2.162185 -0.416116
      ESP Fit Center  308 is at   1.819961 -1.894780 -0.416116
      ESP Fit Center  309 is at   2.100337 -1.578301 -0.416116
      ESP Fit Center  310 is at   2.326315 -1.220944 -0.416116
      ESP Fit Center  311 is at   2.492043 -0.831966 -0.416116
      ESP Fit Center  312 is at   2.593229 -0.421441 -0.416116
      ESP Fit Center  313 is at   2.529810  0.000000 -0.821985
      ESP Fit Center  314 is at   2.495307  0.416393 -0.821985
      ESP Fit Center  315 is at   2.392738  0.821428 -0.821985
      ESP Fit Center  316 is at   2.224902  1.204057 -0.821985
      ESP Fit Center  317 is at   1.996376  1.553842 -0.821985
      ESP Fit Center  318 is at   1.713394  1.861242 -0.821985
      ESP Fit Center  319 is at   1.383675  2.117872 -0.821985
      ESP Fit Center  320 is at   1.016213  2.316733 -0.821985
      ESP Fit Center  321 is at   0.621032  2.452399 -0.821985
      ESP Fit Center  322 is at   0.208910  2.521170 -0.821985
      ESP Fit Center  323 is at  -0.208910  2.521170 -0.821985
      ESP Fit Center  324 is at  -0.621032  2.452399 -0.821985
      ESP Fit Center  325 is at  -1.016213  2.316733 -0.821985
      ESP Fit Center  326 is at  -1.383675  2.117872 -0.821985
      ESP Fit Center  327 is at  -1.713394  1.861242 -0.821985
      ESP Fit Center  328 is at  -1.996376  1.553842 -0.821985
      ESP Fit Center  329 is at  -2.224902  1.204057 -0.821985
      ESP Fit Center  330 is at  -2.392738  0.821428 -0.821985
      ESP Fit Center  331 is at  -2.495307  0.416393 -0.821985
      ESP Fit Center  332 is at  -2.529810  0.000000 -0.821985
      ESP Fit Center  333 is at  -2.495307 -0.416393 -0.821985
      ESP Fit Center  334 is at  -2.392738 -0.821428 -0.821985
      ESP Fit Center  335 is at  -2.224902 -1.204057 -0.821985
      ESP Fit Center  336 is at  -1.996376 -1.553842 -0.821985
      ESP Fit Center  337 is at  -1.713394 -1.861242 -0.821985
      ESP Fit Center  338 is at  -1.383675 -2.117872 -0.821985
      ESP Fit Center  339 is at  -1.016213 -2.316733 -0.821985
      ESP Fit Center  340 is at  -0.621032 -2.452399 -0.821985
      ESP Fit Center  341 is at  -0.208910 -2.521170 -0.821985
      ESP Fit Center  342 is at   0.208910 -2.521170 -0.821985
      ESP Fit Center  343 is at   0.621032 -2.452399 -0.821985
      ESP Fit Center  344 is at   1.016213 -2.316733 -0.821985
      ESP Fit Center  345 is at   1.383675 -2.117872 -0.821985
      ESP Fit Center  346 is at   1.713394 -1.861242 -0.821985
      ESP Fit Center  347 is at   1.996376 -1.553842 -0.821985
      ESP Fit Center  348 is at   2.224902 -1.204057 -0.821985
      ESP Fit Center  349 is at   2.392738 -0.821428 -0.821985
      ESP Fit Center  350 is at   2.495307 -0.416393 -0.821985
      ESP Fit Center  351 is at   2.370077  0.000000 -1.207615
      ESP Fit Center  352 is at   2.331989  0.423194 -1.207615
      ESP Fit Center  353 is at   2.218949  0.832786 -1.207615
      ESP Fit Center  354 is at   2.034590  1.215611 -1.207615
      ESP Fit Center  355 is at   1.784838  1.559366 -1.207615
      ESP Fit Center  356 is at   1.477719  1.853001 -1.207615
      ESP Fit Center  357 is at   1.123105  2.087080 -1.207615
      ESP Fit Center  358 is at   0.732394  2.254078 -1.207615
      ESP Fit Center  359 is at   0.318143  2.348628 -1.207615
      ESP Fit Center  360 is at  -0.106333  2.367691 -1.207615
      ESP Fit Center  361 is at  -0.527392  2.310655 -1.207615
      ESP Fit Center  362 is at  -0.931500  2.179352 -1.207615
      ESP Fit Center  363 is at  -1.305668  1.978003 -1.207615
      ESP Fit Center  364 is at  -1.637872  1.713080 -1.207615
      ESP Fit Center  365 is at  -1.917433  1.393097 -1.207615
      ESP Fit Center  366 is at  -2.135366  1.028338 -1.207615
      ESP Fit Center  367 is at  -2.284667  0.630528 -1.207615
      ESP Fit Center  368 is at  -2.360536  0.212452 -1.207615
      ESP Fit Center  369 is at  -2.360536 -0.212452 -1.207615
      ESP Fit Center  370 is at  -2.284667 -0.630528 -1.207615
      ESP Fit Center  371 is at  -2.135366 -1.028338 -1.207615
      ESP Fit Center  372 is at  -1.917433 -1.393097 -1.207615
      ESP Fit Center  373 is at  -1.637872 -1.713080 -1.207615
      ESP Fit Center  374 is at  -1.305668 -1.978003 -1.207615
      ESP Fit Center  375 is at  -0.931500 -2.179352 -1.207615
      ESP Fit Center  376 is at  -0.527392 -2.310655 -1.207615
      ESP Fit Center  377 is at  -0.106333 -2.367691 -1.207615
      ESP Fit Center  378 is at   0.318143 -2.348628 -1.207615
      ESP Fit Center  379 is at   0.732394 -2.254078 -1.207615
      ESP Fit Center  380 is at   1.123105 -2.087080 -1.207615
      ESP Fit Center  381 is at   1.477719 -1.853001 -1.207615
      ESP Fit Center  382 is at   1.784838 -1.559366 -1.207615
      ESP Fit Center  383 is at   2.034590 -1.215611 -1.207615
      ESP Fit Center  384 is at   2.218949 -0.832786 -1.207615
      ESP Fit Center  385 is at   2.331989 -0.423194 -1.207615
      ESP Fit Center  386 is at   2.151985  0.000000 -1.563509
      ESP Fit Center  387 is at   2.110635  0.419831 -1.563509
      ESP Fit Center  388 is at   1.988175  0.823529 -1.563509
      ESP Fit Center  389 is at   1.789310  1.195579 -1.563509
      ESP Fit Center  390 is at   1.521683  1.521683 -1.563509
      ESP Fit Center  391 is at   1.195579  1.789310 -1.563509
      ESP Fit Center  392 is at   0.823529  1.988175 -1.563509
      ESP Fit Center  393 is at   0.419831  2.110635 -1.563509
      ESP Fit Center  394 is at   0.000000  2.151985 -1.563509
      ESP Fit Center  395 is at  -0.419831  2.110635 -1.563509
      ESP Fit Center  396 is at  -0.823529  1.988175 -1.563509
      ESP Fit Center  397 is at  -1.195579  1.789310 -1.563509
      ESP Fit Center  398 is at  -1.521683  1.521683 -1.563509
      ESP Fit Center  399 is at  -1.789310  1.195579 -1.563509
      ESP Fit Center  400 is at  -1.988175  0.823529 -1.563509
      ESP Fit Center  401 is at  -2.110635  0.419831 -1.563509
      ESP Fit Center  402 is at  -2.151985  0.000000 -1.563509
      ESP Fit Center  403 is at  -2.110635 -0.419831 -1.563509
      ESP Fit Center  404 is at  -1.988175 -0.823529 -1.563509
      ESP Fit Center  405 is at  -1.789310 -1.195579 -1.563509
      ESP Fit Center  406 is at  -1.521683 -1.521683 -1.563509
      ESP Fit Center  407 is at  -1.195579 -1.789310 -1.563509
      ESP Fit Center  408 is at  -0.823529 -1.988175 -1.563509
      ESP Fit Center  409 is at  -0.419831 -2.110635 -1.563509
      ESP Fit Center  410 is at  -0.000000 -2.151985 -1.563509
      ESP Fit Center  411 is at   0.419831 -2.110635 -1.563509
      ESP Fit Center  412 is at   0.823529 -1.988175 -1.563509
      ESP Fit Center  413 is at   1.195579 -1.789310 -1.563509
      ESP Fit Center  414 is at   1.521683 -1.521683 -1.563509
      ESP Fit Center  415 is at   1.789310 -1.195579 -1.563509
      ESP Fit Center  416 is at   1.988175 -0.823529 -1.563509
      ESP Fit Center  417 is at   2.110635 -0.419831 -1.563509
      ESP Fit Center  418 is at   1.880904  0.000000 -1.880904
      ESP Fit Center  419 is at   1.833746  0.418541 -1.880904
      ESP Fit Center  420 is at   1.694636  0.816094 -1.880904
      ESP Fit Center  421 is at   1.470550  1.172724 -1.880904
      ESP Fit Center  422 is at   1.172724  1.470550 -1.880904
      ESP Fit Center  423 is at   0.816094  1.694636 -1.880904
      ESP Fit Center  424 is at   0.418541  1.833746 -1.880904
      ESP Fit Center  425 is at   0.000000  1.880904 -1.880904
      ESP Fit Center  426 is at  -0.418541  1.833746 -1.880904
      ESP Fit Center  427 is at  -0.816094  1.694636 -1.880904
      ESP Fit Center  428 is at  -1.172724  1.470550 -1.880904
      ESP Fit Center  429 is at  -1.470550  1.172724 -1.880904
      ESP Fit Center  430 is at  -1.694636  0.816094 -1.880904
      ESP Fit Center  431 is at  -1.833746  0.418541 -1.880904
      ESP Fit Center  432 is at  -1.880904  0.000000 -1.880904
      ESP Fit Center  433 is at  -1.833746 -0.418541 -1.880904
      ESP Fit Center  434 is at  -1.694636 -0.816094 -1.880904
      ESP Fit Center  435 is at  -1.470550 -1.172724 -1.880904
      ESP Fit Center  436 is at  -1.172724 -1.470550 -1.880904
      ESP Fit Center  437 is at  -0.816094 -1.694636 -1.880904
      ESP Fit Center  438 is at  -0.418541 -1.833746 -1.880904
      ESP Fit Center  439 is at  -0.000000 -1.880904 -1.880904
      ESP Fit Center  440 is at   0.418541 -1.833746 -1.880904
      ESP Fit Center  441 is at   0.816094 -1.694636 -1.880904
      ESP Fit Center  442 is at   1.172724 -1.470550 -1.880904
      ESP Fit Center  443 is at   1.470550 -1.172724 -1.880904
      ESP Fit Center  444 is at   1.694636 -0.816094 -1.880904
      ESP Fit Center  445 is at   1.833746 -0.418541 -1.880904
      ESP Fit Center  446 is at   1.563509  0.000000 -2.151985
      ESP Fit Center  447 is at   1.505530  0.421830 -2.151985
      ESP Fit Center  448 is at   1.335892  0.812374 -2.151985
      ESP Fit Center  449 is at   1.067178  1.142668 -2.151985
      ESP Fit Center  450 is at   0.719316  1.388216 -2.151985
      ESP Fit Center  451 is at   0.318105  1.530807 -2.151985
      ESP Fit Center  452 is at  -0.106698  1.559864 -2.151985
      ESP Fit Center  453 is at  -0.523587  1.473233 -2.151985
      ESP Fit Center  454 is at  -0.901645  1.277340 -2.151985
      ESP Fit Center  455 is at  -1.212831  0.986712 -2.151985
      ESP Fit Center  456 is at  -1.434068  0.622904 -2.151985
      ESP Fit Center  457 is at  -1.548946  0.212898 -2.151985
      ESP Fit Center  458 is at  -1.548946 -0.212898 -2.151985
      ESP Fit Center  459 is at  -1.434068 -0.622904 -2.151985
      ESP Fit Center  460 is at  -1.212831 -0.986712 -2.151985
      ESP Fit Center  461 is at  -0.901645 -1.277340 -2.151985
      ESP Fit Center  462 is at  -0.523587 -1.473233 -2.151985
      ESP Fit Center  463 is at  -0.106698 -1.559864 -2.151985
      ESP Fit Center  464 is at   0.318105 -1.530807 -2.151985
      ESP Fit Center  465 is at   0.719316 -1.388216 -2.151985
      ESP Fit Center  466 is at   1.067178 -1.142668 -2.151985
      ESP Fit Center  467 is at   1.335892 -0.812374 -2.151985
      ESP Fit Center  468 is at   1.505530 -0.421830 -2.151985
      ESP Fit Center  469 is at   1.207615  0.000000 -2.370077
      ESP Fit Center  470 is at   1.134787  0.413029 -2.370077
      ESP Fit Center  471 is at   0.925087  0.776240 -2.370077
      ESP Fit Center  472 is at   0.603807  1.045825 -2.370077
      ESP Fit Center  473 is at   0.209700  1.189268 -2.370077
      ESP Fit Center  474 is at  -0.209700  1.189268 -2.370077
      ESP Fit Center  475 is at  -0.603807  1.045825 -2.370077
      ESP Fit Center  476 is at  -0.925087  0.776240 -2.370077
      ESP Fit Center  477 is at  -1.134787  0.413029 -2.370077
      ESP Fit Center  478 is at  -1.207615  0.000000 -2.370077
      ESP Fit Center  479 is at  -1.134787 -0.413029 -2.370077
      ESP Fit Center  480 is at  -0.925087 -0.776240 -2.370077
      ESP Fit Center  481 is at  -0.603807 -1.045825 -2.370077
      ESP Fit Center  482 is at  -0.209700 -1.189268 -2.370077
      ESP Fit Center  483 is at   0.209700 -1.189268 -2.370077
      ESP Fit Center  484 is at   0.603807 -1.045825 -2.370077
      ESP Fit Center  485 is at   0.925087 -0.776240 -2.370077
      ESP Fit Center  486 is at   1.134787 -0.413029 -2.370077
      ESP Fit Center  487 is at   0.821985  0.000000 -2.529810
      ESP Fit Center  488 is at   0.711860  0.410993 -2.529810
      ESP Fit Center  489 is at   0.410993  0.711860 -2.529810
      ESP Fit Center  490 is at   0.000000  0.821985 -2.529810
      ESP Fit Center  491 is at  -0.410993  0.711860 -2.529810
      ESP Fit Center  492 is at  -0.711860  0.410993 -2.529810
      ESP Fit Center  493 is at  -0.821985  0.000000 -2.529810
      ESP Fit Center  494 is at  -0.711860 -0.410993 -2.529810
      ESP Fit Center  495 is at  -0.410993 -0.711860 -2.529810
      ESP Fit Center  496 is at  -0.000000 -0.821985 -2.529810
      ESP Fit Center  497 is at   0.410993 -0.711860 -2.529810
      ESP Fit Center  498 is at   0.711860 -0.410993 -2.529810
      ESP Fit Center  499 is at   0.416116  0.000000 -2.627251
      ESP Fit Center  500 is at   0.208058  0.360367 -2.627251
      ESP Fit Center  501 is at  -0.208058  0.360367 -2.627251
      ESP Fit Center  502 is at  -0.416116  0.000000 -2.627251
      ESP Fit Center  503 is at  -0.208058 -0.360367 -2.627251
      ESP Fit Center  504 is at   0.208058 -0.360367 -2.627251
      ESP Fit Center  505 is at   0.000000  0.000000 -2.660000
      ESP Fit Center  506 is at   0.000000  0.000000  3.040000
      ESP Fit Center  507 is at   0.413947  0.000000  3.011685
      ESP Fit Center  508 is at   0.206973  0.358488  3.011685
      ESP Fit Center  509 is at  -0.206973  0.358488  3.011685
      ESP Fit Center  510 is at  -0.413947  0.000000  3.011685
      ESP Fit Center  511 is at  -0.206973 -0.358488  3.011685
      ESP Fit Center  512 is at   0.206973 -0.358488  3.011685
      ESP Fit Center  513 is at   0.820182  0.000000  2.927269
[...]
 2554 Fit       0.139257
 2555 Fit       0.139257
 2556 Fit       0.139257
 2557 Fit       0.139257
 2558 Fit       0.139257
 2559 Fit       0.139257
 2560 Fit       0.139257
 2561 Fit       0.139257
 2562 Fit       0.139257
 2563 Fit       0.139257
 2564 Fit       0.139257
 2565 Fit       0.139257
 2566 Fit       0.139257
 2567 Fit       0.139257
 2568 Fit       0.139257
 2569 Fit       0.139257
 2570 Fit       0.139257
 2571 Fit       0.139257
 2572 Fit       0.139257
 2573 Fit       0.139257
 2574 Fit       0.139257
 2575 Fit       0.139257
 2576 Fit       0.139257
 2577 Fit       0.139257
 2578 Fit       0.139257
 2579 Fit       0.139257
 2580 Fit       0.139257
 2581 Fit       0.139257
 2582 Fit       0.139257
 2583 Fit       0.139257
 2584 Fit       0.139257
 2585 Fit       0.139257
 2586 Fit       0.139257
 2587 Fit       0.139257
 2588 Fit       0.139257
 2589 Fit       0.139257
 2590 Fit       0.139257
 2591 Fit       0.139257
 2592 Fit       0.139257
 2593 Fit       0.139257
 2594 Fit       0.139257
 2595 Fit       0.139257
 2596 Fit       0.139257
 2597 Fit       0.139257
 2598 Fit       0.139257
 2599 Fit       0.139257
 2600 Fit       0.139257
 2601 Fit       0.139257
 2602 Fit       0.139257
 2603 Fit       0.139257
 2604 Fit       0.139257
 2605 Fit       0.139257
 2606 Fit       0.139257
 2607 Fit       0.139257
 2608 Fit       0.139257
 2609 Fit       0.139257
 2610 Fit       0.139257
 2611 Fit       0.139257
 2612 Fit       0.139257
 2613 Fit       0.139257
 2614 Fit       0.139257
 2615 Fit       0.139257
 2616 Fit       0.139257
 2617 Fit       0.139257
 2618 Fit       0.139257
 2619 Fit       0.139257
 2620 Fit       0.139257
 2621 Fit       0.139257
 2622 Fit       0.139257
 2623 Fit       0.139257
 2624 Fit       0.139257
 2625 Fit       0.139257
 2626 Fit       0.139257
 2627 Fit       0.139257
 2628 Fit       0.139257
 2629 Fit       0.139257
 2630 Fit       0.139257
 2631 Fit       0.139257
 2632 Fit       0.139257
 2633 Fit       0.139257
 2634 Fit       0.139257
 2635 Fit       0.139257
 2636 Fit       0.139257
 2637 Fit       0.139257
 2638 Fit       0.139257
 2639 Fit       0.139257
 2640 Fit       0.139257
 2641 Fit       0.139257
 2642 Fit       0.139257
 2643 Fit       0.139257
 2644 Fit       0.139257
 2645 Fit       0.139257
 2646 Fit       0.139257
 2647 Fit       0.139257
 2648 Fit       0.139257
 2649 Fit       0.139257
 2650 Fit       0.139257
 2651 Fit       0.139257
 2652 Fit       0.139257
 2653 Fit       0.139257
 2654 Fit       0.139257
 2655 Fit       0.139257
 2656 Fit       0.139257
 2657 Fit       0.139257
 2658 Fit       0.139257
 2659 Fit       0.139257
 2660 Fit       0.139257
 2661 Fit       0.139257
 2662 Fit       0.139257
 2663 Fit       0.139257
 2664 Fit       0.139257
 2665 Fit       0.139257
 2666 Fit       0.139257
 2667 Fit       0.139257
 2668 Fit       0.139257
 2669 Fit       0.139257
 2670 Fit       0.139257
 2671 Fit       0.139257
 2672 Fit       0.139257
 2673 Fit       0.139257
 2674 Fit       0.139257
 2675 Fit       0.139257
 2676 Fit       0.139257
 2677 Fit       0.139257
 2678 Fit       0.139257
 2679 Fit       0.139257
 2680 Fit       0.139257
 2681 Fit       0.139257
 2682 Fit       0.139257
 2683 Fit       0.139257
 2684 Fit       0.139257
 2685 Fit       0.139257
 2686 Fit       0.139257
 2687 Fit       0.139257
 2688 Fit       0.139257
 2689 Fit       0.139257
 2690 Fit       0.139257
 2691 Fit       0.139257
 2692 Fit       0.139257
 2693 Fit       0.139257
 2694 Fit       0.139257
 2695 Fit       0.139257
 2696 Fit       0.139257
 2697 Fit       0.139257
 2698 Fit       0.139257
 2699 Fit       0.139257
 2700 Fit       0.139257
 2701 Fit       0.139257
 2702 Fit       0.139257
 2703 Fit       0.139257
 2704 Fit       0.139257
 2705 Fit       0.139257
 2706 Fit       0.139257
 2707 Fit       0.139257
 2708 Fit       0.139257
 2709 Fit       0.139257
 2710 Fit       0.139257
 2711 Fit       0.139257
 2712 Fit       0.139257
 2713 Fit       0.139257
 2714 Fit       0.139257
 2715 Fit       0.139257
 2716 Fit       0.139257
 2717 Fit       0.139257
 2718 Fit       0.139257
 2719 Fit       0.139257
 2720 Fit       0.139257
 2721 Fit       0.139257
 2722 Fit       0.139257
 2723 Fit       0.139257
 2724 Fit       0.139257
 2725 Fit       0.139257
 2726 Fit       0.139257
 2727 Fit       0.139257
 2728 Fit       0.139257
 2729 Fit       0.139257
 2730 Fit       0.139257
 2731 Fit       0.139257
 2732 Fit       0.139257
 2733 Fit       0.139257
 2734 Fit       0.139257
 2735 Fit       0.139257
 2736 Fit       0.139257
 2737 Fit       0.139257
 2738 Fit       0.139257
 2739 Fit       0.139257
 2740 Fit       0.139257
 2741 Fit       0.139257
 2742 Fit       0.139257
 2743 Fit       0.139257
 2744 Fit       0.139257
 2745 Fit       0.139257
 2746 Fit       0.139257
 2747 Fit       0.139257
 2748 Fit       0.139257
 2749 Fit       0.139257
 2750 Fit       0.139257
 2751 Fit       0.139257
 2752 Fit       0.139257
 2753 Fit       0.139257
 2754 Fit       0.139257
 2755 Fit       0.139257
 2756 Fit       0.139257
 2757 Fit       0.139257
 2758 Fit       0.139257
 2759 Fit       0.139257
 2760 Fit       0.139257
 2761 Fit       0.139257
 2762 Fit       0.139257
 2763 Fit       0.139257
 2764 Fit       0.139257
 2765 Fit       0.139257
 2766 Fit       0.139257
 2767 Fit       0.139257
 2768 Fit       0.139257
 2769 Fit       0.139257
 2770 Fit       0.139257
 2771 Fit       0.139257
 2772 Fit       0.139257
 2773 Fit       0.139257
 2774 Fit       0.139257
 2775 Fit       0.139257
 2776 Fit       0.139257
 2777 Fit       0.139257
 2778 Fit       0.139257
 2779 Fit       0.139257
 2780 Fit       0.139257
 2781 Fit       0.139257
 2782 Fit       0.139257
 2783 Fit       0.139257
 2784 Fit       0.139257
 2785 Fit       0.139257
 2786 Fit       0.139257
 2787 Fit       0.139257
 2788 Fit       0.139257
 2789 Fit       0.139257
 2790 Fit       0.139257
 2791 Fit       0.139257
 2792 Fit       0.139257
 2793 Fit       0.139257
 2794 Fit       0.139257
 2795 Fit       0.139257
 2796 Fit       0.139257
 2797 Fit       0.139257
 2798 Fit       0.139257
 2799 Fit       0.139257
 2800 Fit       0.139257
 2801 Fit       0.139257
 2802 Fit       0.139257
 2803 Fit       0.139257
 2804 Fit       0.139257
 2805 Fit       0.139257
 2806 Fit       0.139257
 2807 Fit       0.139257
 2808 Fit       0.139257
 2809 Fit       0.139257
 2810 Fit       0.139257
 2811 Fit       0.139257
 2812 Fit       0.139257
 2813 Fit       0.139257
 2814 Fit       0.139257
 2815 Fit       0.139257
 2816 Fit       0.139257
 2817 Fit       0.139257
 2818 Fit       0.139257
 2819 Fit       0.139257
 2820 Fit       0.139257
 2821 Fit       0.139257
 2822 Fit       0.139257
 2823 Fit       0.139257
 2824 Fit       0.139257
 2825 Fit       0.139257
 2826 Fit       0.139257
 2827 Fit       0.139257
 2828 Fit       0.139257
 2829 Fit       0.139257
 2830 Fit       0.139257
 2831 Fit       0.139257
 2832 Fit       0.139257
 2833 Fit       0.139257
 2834 Fit       0.139257
 2835 Fit       0.139257
 2836 Fit       0.139257
 2837 Fit       0.139257
 2838 Fit       0.139257
 2839 Fit       0.139257
 2840 Fit       0.139257
 2841 Fit       0.139257
 2842 Fit       0.139257
 2843 Fit       0.139257
 2844 Fit       0.139257
 2845 Fit       0.139257
 2846 Fit       0.139257
 2847 Fit       0.139257
 2848 Fit       0.139257
 2849 Fit       0.139257
 2850 Fit       0.139257
 2851 Fit       0.139257
 2852 Fit       0.139257
 2853 Fit       0.139257
 2854 Fit       0.139257
 2855 Fit       0.139257
 2856 Fit       0.139257
 2857 Fit       0.139257
 2858 Fit       0.139257
 2859 Fit       0.139257
 2860 Fit       0.139257
 2861 Fit       0.139257
 2862 Fit       0.139257
 2863 Fit       0.139257
 2864 Fit       0.139257
 2865 Fit       0.139257
 2866 Fit       0.139257
 2867 Fit       0.139257
 2868 Fit       0.139257
 2869 Fit       0.139257
 2870 Fit       0.139257
 2871 Fit       0.139257
 2872 Fit       0.139257
 2873 Fit       0.139257
 2874 Fit       0.139257
 2875 Fit       0.139257
 2876 Fit       0.139257
 2877 Fit       0.139257
 2878 Fit       0.139257
 2879 Fit       0.139257
 2880 Fit       0.139257
 2881 Fit       0.139257
 2882 Fit       0.139257
 2883 Fit       0.139257
 2884 Fit       0.139257
 2885 Fit       0.139257
 2886 Fit       0.139257
 2887 Fit       0.139257
 2888 Fit       0.139257
 2889 Fit       0.139257
 2890 Fit       0.139257
 2891 Fit       0.139257
 2892 Fit       0.139257
 2893 Fit       0.139257
 2894 Fit       0.139257
 2895 Fit       0.139257
 2896 Fit       0.139257
 2897 Fit       0.139257
 2898 Fit       0.139257
 2899 Fit       0.139257
 2900 Fit       0.139257
 2901 Fit       0.139257
 2902 Fit       0.139257
 2903 Fit       0.139257
 2904 Fit       0.139257
 2905 Fit       0.139257
 2906 Fit       0.139257
 2907 Fit       0.139257
 2908 Fit       0.139257
 2909 Fit       0.139257
 2910 Fit       0.139257
 2911 Fit       0.139257
 2912 Fit       0.139257
 2913 Fit       0.139257
 2914 Fit       0.139257
 2915 Fit       0.139257
 2916 Fit       0.139257
 2917 Fit       0.139257
 2918 Fit       0.139257
 2919 Fit       0.139257
 2920 Fit       0.139257
 2921 Fit       0.139257
 2922 Fit       0.139257
 2923 Fit       0.139257
 2924 Fit       0.139257
 2925 Fit       0.139257
 2926 Fit       0.139257
 2927 Fit       0.139257
 2928 Fit       0.139257
 2929 Fit       0.139257
 2930 Fit       0.139257
 2931 Fit       0.139257
 2932 Fit       0.139257
 2933 Fit       0.139257
 2934 Fit       0.139257
 2935 Fit       0.139257
 2936 Fit       0.139257
 2937 Fit       0.139257
 2938 Fit       0.139257
 2939 Fit       0.139257
 2940 Fit       0.139257
 2941 Fit       0.139257
 2942 Fit       0.139257
 2943 Fit       0.139257
 2944 Fit       0.139257
 2945 Fit       0.139257
 2946 Fit       0.139257
 2947 Fit       0.139257
 2948 Fit       0.139257
 2949 Fit       0.139257
 2950 Fit       0.139257
 2951 Fit       0.139257
 2952 Fit       0.139257
 2953 Fit       0.139257
 2954 Fit       0.139257
 2955 Fit       0.139257
 2956 Fit       0.139257
 2957 Fit       0.139257
 2958 Fit       0.139257
 2959 Fit       0.139257
 2960 Fit       0.139257
 2961 Fit       0.139257
 2962 Fit       0.139257
 2963 Fit       0.139257
 2964 Fit       0.139257
 2965 Fit       0.139257
 2966 Fit       0.139257
 2967 Fit       0.139257
 2968 Fit       0.139257
 2969 Fit       0.139257
 2970 Fit       0.139257
 2971 Fit       0.139257
 2972 Fit       0.139257
 2973 Fit       0.139257
 2974 Fit       0.139257
 2975 Fit       0.139257
 2976 Fit       0.139257
 2977 Fit       0.139257
 2978 Fit       0.139257
 2979 Fit       0.139257
 2980 Fit       0.139257
 2981 Fit       0.139257
 2982 Fit       0.139257
 2983 Fit       0.139257
 2984 Fit       0.139257
 2985 Fit       0.139257
 2986 Fit       0.139257
 2987 Fit       0.139257
 2988 Fit       0.139257
 2989 Fit       0.139257
 2990 Fit       0.139257
 2991 Fit       0.139257
 2992 Fit       0.139257
 2993 Fit       0.139257
 2994 Fit       0.139257
 2995 Fit       0.139257
 2996 Fit       0.139257
 2997 Fit       0.139257
 2998 Fit       0.139257
 2999 Fit       0.139257
 3000 Fit       0.139257
 3001 Fit       0.139257
 3002 Fit       0.139257
 3003 Fit       0.139257
 3004 Fit       0.139257
 3005 Fit       0.139257
 3006 Fit       0.139257
 3007 Fit       0.139257
 3008 Fit       0.139257
 3009 Fit       0.139257
 3010 Fit       0.139257
 3011 Fit       0.139257
 3012 Fit       0.139257
 3013 Fit       0.139257
 3014 Fit       0.139257
 3015 Fit       0.139257
 3016 Fit       0.139257
 3017 Fit       0.139257
 3018 Fit       0.139257
 3019 Fit       0.139257
 3020 Fit       0.139257
 3021 Fit       0.139257
 3022 Fit       0.139257
 3023 Fit       0.139257
 3024 Fit       0.139257
 3025 Fit       0.139257
 3026 Fit       0.139257
 3027 Fit       0.139257
 3028 Fit       0.139257
 3029 Fit       0.139257
 3030 Fit       0.139257
 3031 Fit       0.139257
 3032 Fit       0.139257
 3033 Fit       0.139257
 3034 Fit       0.139257
 3035 Fit       0.139257
 3036 Fit       0.139257
 3037 Fit       0.139257
 3038 Fit       0.139257
 3039 Fit       0.139257
 3040 Fit       0.139257
 3041 Fit       0.139257
 3042 Fit       0.139257
 3043 Fit       0.139257
 3044 Fit       0.139257
 3045 Fit       0.139257
 3046 Fit       0.139257
 3047 Fit       0.139257
 3048 Fit       0.139257
 3049 Fit       0.139257
 3050 Fit       0.139257
 3051 Fit       0.139257
 3052 Fit       0.139257
 3053 Fit       0.139257
 3054 Fit       0.139257
 3055 Fit       0.139257
 3056 Fit       0.139257
 3057 Fit       0.139257
 3058 Fit       0.139257
 3059 Fit       0.139257
 3060 Fit       0.139257
 3061 Fit       0.139257
 3062 Fit       0.139257
 3063 Fit       0.139257
 3064 Fit       0.139257
 3065 Fit       0.139257
 3066 Fit       0.139257
 3067 Fit       0.139257
 3068 Fit       0.139257
 3069 Fit       0.139257
 3070 Fit       0.139257
 3071 Fit       0.139257
 3072 Fit       0.139257
 3073 Fit       0.139257
 3074 Fit       0.139257
 3075 Fit       0.139257
 3076 Fit       0.139257
 3077 Fit       0.139257
 -----------------------------------------------------------------
 Leave Link  602 at Tue Sep 30 19:49:57 2025, MaxMem=  4294967296 cpu:               1.1 elap:               0.1
 (Enter /software/sse/easybuild/prefix/software/Gaussian/16.C.01-avx2-nsc1/g16/l701.exe)
 ... and contract with generalized density number  2.
 Compute integral first derivatives.
 Leave Link  701 at Tue Sep 30 19:49:58 2025, MaxMem=  4294967296 cpu:               1.6 elap:               0.1
 (Enter /software/sse/easybuild/prefix/software/Gaussian/16.C.01-avx2-nsc1/g16/l702.exe)
 L702 exits ... SP integral derivatives will be done elsewhere.
 Leave Link  702 at Tue Sep 30 19:49:58 2025, MaxMem=  4294967296 cpu:               0.5 elap:               0.1
 (Enter /software/sse/easybuild/prefix/software/Gaussian/16.C.01-avx2-nsc1/g16/l703.exe)
 Integral derivatives from FoFJK, PRISM(SPDF).
 Compute integral first derivatives, UseDBF=F ICtDFT=           0.
 Calling FoFJK, ICntrl=  10002127 FMM=F ISym2X=1 I1Cent= 0 IOpClX= 0 NMat=1 NMatS=1 NMatT=0.
 FoFJK:  IHMeth= 1 ICntrl=10002127 DoSepK=F KAlg= 0 I1Cent=           0 FoldK=F
 IRaf=         0 NMat=       1 IRICut=       1 DoRegI=T DoRafI=F ISym2E= 1 IDoP0=0 IntGTp=1.
 FoFCou: FMM=F IPFlag=           0 FMFlag=      100000 FMFlg1=         800
         NFxFlg=           0 DoJE=F BraDBF=F KetDBF=F FulRan=T
         wScrn=  0.000000 ICntrl=  10002127 IOpCl=  0 I1Cent=           0 NGrid=           0
         NMat0=    1 NMatS0=      1 NMatT0=    0 NMatD0=    1 NMtDS0=    0 NMtDT0=    0
 Petite list used in FoFCou.
 Leave Link  703 at Tue Sep 30 19:49:58 2025, MaxMem=  4294967296 cpu:               2.4 elap:               0.2
 (Enter /software/sse/easybuild/prefix/software/Gaussian/16.C.01-avx2-nsc1/g16/l716.exe)
 Dipole        = 0.00000000D+00 0.00000000D+00 0.00000000D+00
 ***** Axes restored to original set *****
 -------------------------------------------------------------------
 Center     Atomic                   Forces (Hartrees/Bohr)
 Number     Number              X              Y              Z
 -------------------------------------------------------------------
      1       19          -0.000000000   -0.000000000   -0.000000000
 -------------------------------------------------------------------
 Cartesian Forces:  Max     0.000000000 RMS     0.000000000
 Z-matrix is all fixed cartesians, so copy forces.
 Leave Link  716 at Tue Sep 30 19:49:59 2025, MaxMem=  4294967296 cpu:               0.8 elap:               0.1
 (Enter /software/sse/easybuild/prefix/software/Gaussian/16.C.01-avx2-nsc1/g16/l103.exe)

 GradGradGradGradGradGradGradGradGradGradGradGradGradGradGradGradGradGrad
 Berny optimization.
 Search for a local minimum.
 Step number   1 out of a maximum of   20
 All quantities printed in internal units (Hartrees-Bohrs-Radians)
 RMS Force = .00000D+00 SwitMx=.10000D-02 MixMth= 2
 Mixed Optimization -- En-DIIS/RFO-DIIS
 Second derivative matrix not updated -- first step.
 The second derivative matrix:
                          X1        Y1        Z1
           X1           0.00000
           Y1           0.00000   0.00000
           Z1           0.00000   0.00000   0.00000
 ITU=  0
     Eigenvalues --- 
 RFO step:  Lambda=-5.96046448D-09 EMin= 0.00000000D+00
 ClnCor:  largest displacement from symmetrization is 0.00D+00 for atom     0.
 Linear search not attempted -- first point.
 ClnCor:  largest displacement from symmetrization is 0.00D+00 for atom     0.
 B after Tr=     0.000000    0.000000    0.000000
         Rot=    1.000000    0.000000    0.000000    0.000000 Ang=   0.00 deg.
 Variable       Old X    -DE/DX   Delta X   Delta X   Delta X     New X
                                 (Linear)    (Quad)   (Total)
    X1        0.00000  -0.00000   0.00000   0.00000   0.00000   0.00000
    Y1        0.00000  -0.00000   0.00000   0.00000   0.00000   0.00000
    Z1        0.00000  -0.00000   0.00000   0.00000   0.00000   0.00000
         Item               Value     Threshold  Converged?
 Maximum Force            0.000000     0.000015     YES
 RMS     Force            0.000000     0.000010     YES
 Maximum Displacement     0.000000     0.000060     YES
 RMS     Displacement     0.000000     0.000040     YES
 Predicted change in Energy=-0.000000D+00
 Optimization completed.
    -- Stationary point found.
 Lowest energy point so far.  Saving SCF results.
 Largest change from initial coordinates is atom    0       0.000 Angstoms.
 GradGradGradGradGradGradGradGradGradGradGradGradGradGradGradGradGradGrad

 Leave Link  103 at Tue Sep 30 19:49:59 2025, MaxMem=  4294967296 cpu:               0.8 elap:               0.1
 (Enter /software/sse/easybuild/prefix/software/Gaussian/16.C.01-avx2-nsc1/g16/l202.exe)
                          Input orientation:                          
 ---------------------------------------------------------------------
 Center     Atomic      Atomic             Coordinates (Angstroms)
 Number     Number       Type             X           Y           Z
 ---------------------------------------------------------------------
      1         19           0        0.000000    0.000000    0.000000
 ---------------------------------------------------------------------
 Stoichiometry    K(1+)
 Framework group  OH[O(K)]
 Deg. of freedom     0
 Full point group                 OH      NOp  48
 RotChk:  IX=0 Diff= 0.00D+00
 Largest Abelian subgroup         D2H     NOp   8
 Largest concise Abelian subgroup C1      NOp   1
                         Standard orientation:                         
 ---------------------------------------------------------------------
 Center     Atomic      Atomic             Coordinates (Angstroms)
 Number     Number       Type             X           Y           Z
 ---------------------------------------------------------------------
      1         19           0        0.000000    0.000000    0.000000
 ---------------------------------------------------------------------
 Leave Link  202 at Tue Sep 30 19:49:59 2025, MaxMem=  4294967296 cpu:               0.3 elap:               0.0
 (Enter /software/sse/easybuild/prefix/software/Gaussian/16.C.01-avx2-nsc1/g16/l9999.exe)

 Test job not archived.
 1\1\NSC-N291\FOpt\RMP2-FC\Gen\K1(1+)\X_DAVVA\30-Sep-2025\0\\#P MP2/gen
  Opt=tight density=MP2 Pop=(MK,Hirshfeld,ReadRadii) iop(6/33=2) iop(6/
 42=6) maxdisk=128GB\\potassium-ion\\1,1\K,0.,0.,0.\\Version=ES64L-G16R
 evC.01\State=1-A1G\HF=-599.0060308\MP2=-599.0060308\RMSD=6.297e-10\RMS
 F=0.000e+00\Dipole=0.,0.,0.\Quadrupole=0.,0.,0.,0.,0.,0.\PG=OH [O(K1)]
 \\@


 MOM AND DAD WENT TO ALPHA CENTAURI AND ALL
 I GOT WAS THIS DUMB T-SHIRT.
 Job cpu time:       0 days  0 hours  0 minutes 30.6 seconds.
 Elapsed time:       0 days  0 hours  0 minutes  2.4 seconds.
 File lengths (MBytes):  RWF=      6 Int=      0 D2E=      0 Chk=      8 Scr=      1
 Normal termination of Gaussian 16 at Tue Sep 30 19:49:59 2025.
