 Entering Gaussian System, Link 0=/software/sse/easybuild/prefix/software/Gaussian/16.C.01-avx2-nsc1/g16/g16.orig
 Input=imidazole.wrap
 Output=imidazole.log
 Initial command:
 /software/sse/easybuild/prefix/software/Gaussian/16.C.01-avx2-nsc1/g16/l1.exe "/scratch/local/Gau-1700931.inp" -scrdir="/scratch/local/"
 Entering Link 1 = /software/sse/easybuild/prefix/software/Gaussian/16.C.01-avx2-nsc1/g16/l1.exe PID=   1700932.
  
 Copyright (c) 1988-2019, Gaussian, Inc.  All Rights Reserved.
  
 This is part of the Gaussian(R) 16 program.  It is based on
 the Gaussian(R) 09 system (copyright 2009, Gaussian, Inc.),
 the Gaussian(R) 03 system (copyright 2003, Gaussian, Inc.),
 the Gaussian(R) 98 system (copyright 1998, Gaussian, Inc.),
 the Gaussian(R) 94 system (copyright 1995, Gaussian, Inc.),
 the Gaussian 92(TM) system (copyright 1992, Gaussian, Inc.),
 the Gaussian 90(TM) system (copyright 1990, Gaussian, Inc.),
 the Gaussian 88(TM) system (copyright 1988, Gaussian, Inc.),
 the Gaussian 86(TM) system (copyright 1986, Carnegie Mellon
 University), and the Gaussian 82(TM) system (copyright 1983,
 Carnegie Mellon University). Gaussian is a federally registered
 trademark of Gaussian, Inc.
  
 This software contains proprietary and confidential information,
 including trade secrets, belonging to Gaussian, Inc.
  
 This software is provided under written license and may be
 used, copied, transmitted, or stored only in accord with that
 written license.
  
 The following legend is applicable only to US Government
 contracts under FAR:
  
                    RESTRICTED RIGHTS LEGEND
  
 Use, reproduction and disclosure by the US Government is
 subject to restrictions as set forth in subparagraphs (a)
 and (c) of the Commercial Computer Software - Restricted
 Rights clause in FAR 52.227-19.
  
 Gaussian, Inc.
 340 Quinnipiac St., Bldg. 40, Wallingford CT 06492
  
  
 ---------------------------------------------------------------
 Warning -- This program may not be used in any manner that
 competes with the business of Gaussian, Inc. or will provide
 assistance to any competitor of Gaussian, Inc.  The licensee
 of this program is prohibited from giving any competitor of
 Gaussian, Inc. access to this program.  By using this program,
 the user acknowledges that Gaussian, Inc. is engaged in the
 business of creating and licensing software in the field of
 computational chemistry and represents and warrants to the
 licensee that it is not a competitor of Gaussian, Inc. and that
 it will not use this program in any manner prohibited above.
 ---------------------------------------------------------------
  

 Cite this work as:
 Gaussian 16, Revision C.01,
 M. J. Frisch, G. W. Trucks, H. B. Schlegel, G. E. Scuseria, 
 M. A. Robb, J. R. Cheeseman, G. Scalmani, V. Barone, 
 G. A. Petersson, H. Nakatsuji, X. Li, M. Caricato, A. V. Marenich, 
 J. Bloino, B. G. Janesko, R. Gomperts, B. Mennucci, H. P. Hratchian, 
 J. V. Ortiz, A. F. Izmaylov, J. L. Sonnenberg, D. Williams-Young, 
 F. Ding, F. Lipparini, F. Egidi, J. Goings, B. Peng, A. Petrone, 
 T. Henderson, D. Ranasinghe, V. G. Zakrzewski, J. Gao, N. Rega, 
 G. Zheng, W. Liang, M. Hada, M. Ehara, K. Toyota, R. Fukuda, 
 J. Hasegawa, M. Ishida, T. Nakajima, Y. Honda, O. Kitao, H. Nakai, 
 T. Vreven, K. Throssell, J. A. Montgomery, Jr., J. E. Peralta, 
 F. Ogliaro, M. J. Bearpark, J. J. Heyd, E. N. Brothers, K. N. Kudin, 
 V. N. Staroverov, T. A. Keith, R. Kobayashi, J. Normand, 
 K. Raghavachari, A. P. Rendell, J. C. Burant, S. S. Iyengar, 
 J. Tomasi, M. Cossi, J. M. Millam, M. Klene, C. Adamo, R. Cammi, 
 J. W. Ochterski, R. L. Martin, K. Morokuma, O. Farkas, 
 J. B. Foresman, and D. J. Fox, Gaussian, Inc., Wallingford CT, 2019.
 
 ******************************************
 Gaussian 16:  ES64L-G16RevC.01  3-Jul-2019
                30-Sep-2025 
 ******************************************
 %mem=12000MB
 %nprocshared=16
 Will use up to   16 processors via shared memory.
 %mem=32Gb
 %chk=imidazole.chk
 ----------------------------------------------------------------------
 #P MP2/aug-cc-pvtz Opt=tight density=MP2 Pop=(MK,Hirshfeld) iop(6/33=2
 ) iop(6/42=6) maxdisk=128GB
 ----------------------------------------------------------------------
 1/7=10,18=20,19=15,38=1/1,3;
 2/9=110,12=2,17=6,18=5,40=1/2;
 3/5=16,6=1,7=10,11=9,25=1,30=1,71=1/1,2,3;
 4//1;
 5/5=2,38=5/2;
 8/6=4,10=1/1;
 9/15=2,16=-3/6;
 10/5=1/2;
 6/7=2,8=2,9=2,10=2,15=8,20=1,22=2,33=2,42=6,79=1/1,2;
 7/12=2/1,2,3,16;
 1/7=10,18=20,19=15/3(2);
 2/9=110/2;
 99//99;
 2/9=110/2;
 3/5=16,6=1,7=10,11=9,25=1,30=1,71=1/1,2,3;
 4/5=5,16=3,69=1/1;
 5/5=2,38=5/2;
 8/6=4,10=1/1;
 9/15=2,16=-3/6;
 10/5=1/2;
 7/12=2/1,2,3,16;
 1/7=10,18=20,19=15/3(-8);
 2/9=110/2;
 6/7=2,8=2,9=2,10=2,15=8,20=1,22=2,33=2,42=6,79=1/1,2;
 99/9=10/99;
 Leave Link    1 at Tue Sep 30 16:58:49 2025, MaxMem=  4294967296 cpu:               1.1 elap:               0.1
 (Enter /software/sse/easybuild/prefix/software/Gaussian/16.C.01-avx2-nsc1/g16/l101.exe)
 ---------
 imidazole
 ---------
 Symbolic Z-matrix:
 Charge =  0 Multiplicity = 1
 C                     1.10752   0.28675   0. 
 H                     2.10058   0.67509   0. 
 C                     0.63014  -0.9734    0. 
 H                     1.18282  -1.8868    0. 
 N                    -0.74036  -0.96211   0. 
 C                    -1.07319   0.28014   0. 
 H                    -2.07412   0.65641   0. 
 N                     0.        1.09251   0. 
 H                    -0.01359   2.08153   0. 
 
 ITRead=  0  0  0  0  0  0  0  0  0
 MicOpt= -1 -1 -1 -1 -1 -1 -1 -1 -1
 NAtoms=      9 NQM=        9 NQMF=       0 NMMI=      0 NMMIF=      0
                NMic=       0 NMicF=      0.
                    Isotopes and Nuclear Properties:
 (Nuclear quadrupole moments (NQMom) in fm**2, nuclear magnetic moments (NMagM)
  in nuclear magnetons)

  Atom         1           2           3           4           5           6           7           8           9
 IAtWgt=          12           1          12           1          14          12           1          14           1
 AtmWgt=  12.0000000   1.0078250  12.0000000   1.0078250  14.0030740  12.0000000   1.0078250  14.0030740   1.0078250
 NucSpn=           0           1           0           1           2           0           1           2           1
 AtZEff=  -0.0000000  -0.0000000  -0.0000000  -0.0000000  -0.0000000  -0.0000000  -0.0000000  -0.0000000  -0.0000000
 NQMom=    0.0000000   0.0000000   0.0000000   0.0000000   2.0440000   0.0000000   0.0000000   2.0440000   0.0000000
 NMagM=    0.0000000   2.7928460   0.0000000   2.7928460   0.4037610   0.0000000   2.7928460   0.4037610   2.7928460
 AtZNuc=   6.0000000   1.0000000   6.0000000   1.0000000   7.0000000   6.0000000   1.0000000   7.0000000   1.0000000
 Leave Link  101 at Tue Sep 30 16:58:50 2025, MaxMem=  4294967296 cpu:               5.2 elap:               0.3
 (Enter /software/sse/easybuild/prefix/software/Gaussian/16.C.01-avx2-nsc1/g16/l103.exe)

 GradGradGradGradGradGradGradGradGradGradGradGradGradGradGradGradGradGrad
 Berny optimization.
 Initialization pass.
                           ----------------------------
                           !    Initial Parameters    !
                           ! (Angstroms and Degrees)  !
 --------------------------                            --------------------------
 ! Name  Definition              Value          Derivative Info.                !
 --------------------------------------------------------------------------------
 ! R1    R(1,2)                  1.0663         estimate D2E/DX2                !
 ! R2    R(1,3)                  1.3475         estimate D2E/DX2                !
 ! R3    R(1,8)                  1.3696         estimate D2E/DX2                !
 ! R4    R(3,4)                  1.0676         estimate D2E/DX2                !
 ! R5    R(3,5)                  1.3705         estimate D2E/DX2                !
 ! R6    R(5,6)                  1.2861         estimate D2E/DX2                !
 ! R7    R(6,7)                  1.0693         estimate D2E/DX2                !
 ! R8    R(6,8)                  1.346          estimate D2E/DX2                !
 ! R9    R(8,9)                  0.9891         estimate D2E/DX2                !
 ! A1    A(2,1,3)              132.1063         estimate D2E/DX2                !
 ! A2    A(2,1,8)              122.6046         estimate D2E/DX2                !
 ! A3    A(3,1,8)              105.2891         estimate D2E/DX2                !
 ! A4    A(1,3,4)              128.0746         estimate D2E/DX2                !
 ! A5    A(1,3,5)              110.2761         estimate D2E/DX2                !
 ! A6    A(4,3,5)              121.6493         estimate D2E/DX2                !
 ! A7    A(3,5,6)              105.4707         estimate D2E/DX2                !
 ! A8    A(5,6,7)              125.601          estimate D2E/DX2                !
 ! A9    A(5,6,8)              112.1258         estimate D2E/DX2                !
 ! A10   A(7,6,8)              122.2732         estimate D2E/DX2                !
 ! A11   A(1,8,6)              106.8382         estimate D2E/DX2                !
 ! A12   A(1,8,9)              126.8245         estimate D2E/DX2                !
 ! A13   A(6,8,9)              126.3373         estimate D2E/DX2                !
 ! D1    D(2,1,3,4)              0.0            estimate D2E/DX2                !
 ! D2    D(2,1,3,5)            180.0            estimate D2E/DX2                !
 ! D3    D(8,1,3,4)            180.0            estimate D2E/DX2                !
 ! D4    D(8,1,3,5)              0.0            estimate D2E/DX2                !
 ! D5    D(2,1,8,6)            180.0            estimate D2E/DX2                !
 ! D6    D(2,1,8,9)              0.0            estimate D2E/DX2                !
 ! D7    D(3,1,8,6)              0.0            estimate D2E/DX2                !
 ! D8    D(3,1,8,9)            180.0            estimate D2E/DX2                !
 ! D9    D(1,3,5,6)              0.0            estimate D2E/DX2                !
 ! D10   D(4,3,5,6)            180.0            estimate D2E/DX2                !
 ! D11   D(3,5,6,7)            180.0            estimate D2E/DX2                !
 ! D12   D(3,5,6,8)              0.0            estimate D2E/DX2                !
 ! D13   D(5,6,8,1)              0.0            estimate D2E/DX2                !
 ! D14   D(5,6,8,9)            180.0            estimate D2E/DX2                !
 ! D15   D(7,6,8,1)            180.0            estimate D2E/DX2                !
 ! D16   D(7,6,8,9)              0.0            estimate D2E/DX2                !
 --------------------------------------------------------------------------------
 Trust Radius=3.00D-01 FncErr=1.00D-07 GrdErr=1.00D-07 EigMax=2.50D+02 EigMin=1.00D-04
 Number of steps in this run=     48 maximum allowed number of steps=    100.
 GradGradGradGradGradGradGradGradGradGradGradGradGradGradGradGradGradGrad

 Leave Link  103 at Tue Sep 30 16:58:50 2025, MaxMem=  4294967296 cpu:               0.2 elap:               0.0
 (Enter /software/sse/easybuild/prefix/software/Gaussian/16.C.01-avx2-nsc1/g16/l202.exe)
                          Input orientation:                          
 ---------------------------------------------------------------------
 Center     Atomic      Atomic             Coordinates (Angstroms)
 Number     Number       Type             X           Y           Z
 ---------------------------------------------------------------------
      1          6           0        1.107520    0.286750    0.000000
      2          1           0        2.100580    0.675090    0.000000
      3          6           0        0.630140   -0.973400    0.000000
      4          1           0        1.182820   -1.886800    0.000000
      5          7           0       -0.740360   -0.962110    0.000000
      6          6           0       -1.073190    0.280140    0.000000
      7          1           0       -2.074120    0.656410    0.000000
      8          7           0        0.000000    1.092510    0.000000
      9          1           0       -0.013590    2.081530    0.000000
 ---------------------------------------------------------------------
                    Distance matrix (angstroms):
                    1          2          3          4          5
     1  C    0.000000
     2  H    1.066291   0.000000
     3  C    1.347542   2.209007   0.000000
     4  H    2.174854   2.721317   1.067593   0.000000
     5  N    2.230317   3.278927   1.370547   2.133934   0.000000
     6  C    2.180720   3.198250   2.114875   3.128132   1.286064
     7  H    3.203043   4.174742   3.157420   4.132260   2.097266
     8  N    1.369617   2.141653   2.159875   3.205519   2.183941
     9  H    2.116158   2.539250   3.122016   4.144761   3.129207
                    6          7          8          9
     6  C    0.000000
     7  H    1.069318   0.000000
     8  N    1.345987   2.119471   0.000000
     9  H    2.089918   2.505344   0.989113   0.000000
 Stoichiometry    C3H4N2
 Framework group  CS[SG(C3H4N2)]
 Deg. of freedom    15
 Full point group                 CS      NOp   2
 Largest Abelian subgroup         CS      NOp   2
 Largest concise Abelian subgroup C1      NOp   1
                         Standard orientation:                         
 ---------------------------------------------------------------------
 Center     Atomic      Atomic             Coordinates (Angstroms)
 Number     Number       Type             X           Y           Z
 ---------------------------------------------------------------------
      1          6           0        1.107520    0.286751    0.000000
      2          1           0        2.100580    0.675091    0.000000
      3          6           0        0.630141   -0.973399    0.000000
      4          1           0        1.182821   -1.886799    0.000000
      5          7           0       -0.740359   -0.962109    0.000000
      6          6           0       -1.073190    0.280141    0.000000
      7          1           0       -2.074120    0.656410    0.000000
      8          7           0       -0.000000    1.092511    0.000000
      9          1           0       -0.013590    2.081531    0.000000
 ---------------------------------------------------------------------
 Rotational constants (GHZ):           9.9449205           9.6958035           4.9093911
 Leave Link  202 at Tue Sep 30 16:58:50 2025, MaxMem=  4294967296 cpu:               0.1 elap:               0.0
 (Enter /software/sse/easybuild/prefix/software/Gaussian/16.C.01-avx2-nsc1/g16/l301.exe)
 Standard basis: Aug-CC-pVTZ (5D, 7F)
 Ernie: Thresh=  0.10000D-02 Tol=  0.10000D-05 Strict=F.
 Ernie:  15 primitive shells out of 194 were deleted.
 There are   257 symmetry adapted cartesian basis functions of A'  symmetry.
 There are   118 symmetry adapted cartesian basis functions of A"  symmetry.
 There are   214 symmetry adapted basis functions of A'  symmetry.
 There are   108 symmetry adapted basis functions of A"  symmetry.
   322 basis functions,   468 primitive gaussians,   375 cartesian basis functions
    18 alpha electrons       18 beta electrons
       nuclear repulsion energy       165.2965095352 Hartrees.
 IExCor=    0 DFT=F Ex=HF Corr=None ExCW=0 ScaHFX=  1.000000
 ScaDFX=  1.000000  1.000000  1.000000  1.000000 ScalE2=  1.000000  1.000000
 IRadAn=      5 IRanWt=     -1 IRanGd=            0 ICorTp=0 IEmpDi=  4
 NAtoms=    9 NActive=    9 NUniq=    9 SFac= 1.00D+00 NAtFMM=   60 NAOKFM=F Big=F
 Integral buffers will be    131072 words long.
 Raffenetti 1 integral format.
 Two-electron integral symmetry is turned on.
 Leave Link  301 at Tue Sep 30 16:58:51 2025, MaxMem=  4294967296 cpu:               0.8 elap:               0.1
 (Enter /software/sse/easybuild/prefix/software/Gaussian/16.C.01-avx2-nsc1/g16/l302.exe)
 NPDir=0 NMtPBC=     1 NCelOv=     1 NCel=       1 NClECP=     1 NCelD=      1
         NCelK=      1 NCelE2=     1 NClLst=     1 CellRange=     0.0.
 One-electron integrals computed using PRISM.
 One-electron integral symmetry used in STVInt
 NBasis=   322 RedAO= T EigKep=  6.37D-06  NBF=   214   108
 NBsUse=   322 1.00D-06 EigRej= -1.00D+00 NBFU=   214   108
 Leave Link  302 at Tue Sep 30 16:58:51 2025, MaxMem=  4294967296 cpu:               2.7 elap:               0.2
 (Enter /software/sse/easybuild/prefix/software/Gaussian/16.C.01-avx2-nsc1/g16/l303.exe)
 DipDrv:  MaxL=1.
 Leave Link  303 at Tue Sep 30 16:58:52 2025, MaxMem=  4294967296 cpu:               0.5 elap:               0.1
 (Enter /software/sse/easybuild/prefix/software/Gaussian/16.C.01-avx2-nsc1/g16/l401.exe)
 ExpMin= 2.53D-02 ExpMax= 1.14D+04 ExpMxC= 3.89D+02 IAcc=3 IRadAn=         5 AccDes= 0.00D+00
 Harris functional with IExCor=  205 and IRadAn=       5 diagonalized for initial guess.
 HarFok:  IExCor=  205 AccDes= 0.00D+00 IRadAn=         5 IDoV= 1 UseB2=F ITyADJ=14
 ICtDFT=  3500011 ScaDFX=  1.000000  1.000000  1.000000  1.000000
 FoFCou: FMM=F IPFlag=           0 FMFlag=      100000 FMFlg1=           0
         NFxFlg=           0 DoJE=T BraDBF=F KetDBF=T FulRan=T
         wScrn=  0.000000 ICntrl=       500 IOpCl=  0 I1Cent=   200000004 NGrid=           0
         NMat0=    1 NMatS0=      1 NMatT0=    0 NMatD0=    1 NMtDS0=    0 NMtDT0=    0
 Petite list used in FoFCou.
 Harris En= -225.174983532326    
 JPrj=0 DoOrth=F DoCkMO=F.
 Initial guess orbital symmetries:
       Occupied  (A') (A') (A') (A') (A') (A') (A') (A') (A') (A')
                 (A') (A') (A') (A") (A') (A') (A") (A")
       Virtual   (A") (A") (A') (A') (A') (A') (A') (A") (A') (A')
                 (A") (A") (A') (A') (A') (A') (A') (A') (A') (A')
                 (A") (A') (A") (A') (A') (A") (A') (A') (A') (A')
                 (A') (A') (A") (A') (A") (A") (A') (A') (A') (A")
                 (A') (A") (A') (A') (A') (A') (A") (A') (A") (A')
                 (A') (A") (A') (A") (A') (A') (A') (A') (A') (A')
                 (A") (A') (A') (A") (A') (A") (A') (A") (A') (A")
                 (A') (A') (A") (A') (A") (A') (A') (A') (A') (A')
                 (A") (A') (A") (A') (A') (A") (A") (A') (A') (A")
                 (A') (A') (A') (A") (A') (A") (A') (A") (A') (A")
                 (A') (A') (A') (A') (A") (A") (A') (A') (A") (A')
                 (A") (A') (A') (A") (A') (A") (A') (A') (A") (A')
                 (A') (A") (A') (A') (A") (A') (A") (A') (A') (A")
                 (A') (A") (A') (A') (A") (A') (A") (A') (A') (A')
                 (A") (A") (A') (A') (A") (A') (A') (A') (A') (A")
                 (A") (A') (A') (A") (A') (A') (A") (A') (A') (A")
                 (A') (A") (A') (A") (A") (A') (A') (A') (A') (A')
                 (A") (A') (A") (A') (A') (A") (A') (A') (A") (A')
                 (A") (A') (A') (A') (A") (A') (A') (A") (A') (A')
                 (A") (A") (A') (A') (A') (A') (A") (A") (A') (A")
                 (A') (A") (A") (A') (A") (A') (A') (A") (A') (A')
                 (A") (A") (A') (A") (A') (A') (A") (A') (A') (A')
                 (A') (A") (A') (A") (A') (A") (A') (A') (A') (A")
                 (A') (A') (A') (A") (A") (A') (A') (A") (A") (A')
                 (A') (A") (A') (A') (A') (A') (A") (A') (A') (A")
                 (A') (A") (A") (A') (A") (A') (A") (A') (A') (A')
                 (A') (A") (A') (A") (A') (A") (A") (A") (A') (A')
                 (A') (A') (A") (A") (A") (A') (A") (A') (A") (A')
                 (A') (A") (A') (A') (A') (A") (A') (A') (A') (A')
                 (A') (A') (A') (A') (A') (A') (A') (A') (A') (A')
                 (A') (A') (A') (A')
 The electronic state of the initial guess is 1-A'.
 Leave Link  401 at Tue Sep 30 16:58:53 2025, MaxMem=  4294967296 cpu:               5.0 elap:               0.3
 (Enter /software/sse/easybuild/prefix/software/Gaussian/16.C.01-avx2-nsc1/g16/l502.exe)
 Keep R1 ints in memory in symmetry-blocked form, NReq=2036746264.
 FoFCou: FMM=F IPFlag=           0 FMFlag=           0 FMFlg1=           0
         NFxFlg=           0 DoJE=F BraDBF=F KetDBF=F FulRan=T
         wScrn=  0.000000 ICntrl=       600 IOpCl=  0 I1Cent=           0 NGrid=           0
         NMat0=    1 NMatS0=  52003 NMatT0=    0 NMatD0=    1 NMtDS0=    0 NMtDT0=    0
 Petite list used in FoFCou.
 Closed shell SCF:
 Using DIIS extrapolation, IDIIS=  1040.
 NGot=  4294967296 LenX=  3610114521 LenY=  3609973455
 Requested convergence on RMS density matrix=1.00D-08 within 128 cycles.
 Requested convergence on MAX density matrix=1.00D-06.
 Requested convergence on             energy=1.00D-06.
 No special actions if energy rises.

 Cycle   1  Pass 1  IDiag  1:
 E= -224.680814193463    
 DIIS: error= 2.83D-02 at cycle   1 NSaved=   1.
 NSaved= 1 IEnMin= 1 EnMin= -224.680814193463     IErMin= 1 ErrMin= 2.83D-02
 ErrMax= 2.83D-02  0.00D+00 EMaxC= 1.00D-01 BMatC= 4.69D-01 BMatP= 4.69D-01
 IDIUse=3 WtCom= 7.17D-01 WtEn= 2.83D-01
 Coeff-Com:  0.100D+01
 Coeff-En:   0.100D+01
 Coeff:      0.100D+01
 Gap=     0.293 Goal=   None    Shift=    0.000
 GapD=    0.293 DampG=1.000 DampE=0.500 DampFc=0.5000 IDamp=-1.
 Damping current iteration by 5.00D-01
 RMSDP=1.96D-03 MaxDP=1.09D-01              OVMax= 1.54D-01

 Cycle   2  Pass 1  IDiag  1:
 E= -224.793931983418     Delta-E=       -0.113117789955 Rises=F Damp=T
 DIIS: error= 1.10D-02 at cycle   2 NSaved=   2.
 NSaved= 2 IEnMin= 2 EnMin= -224.793931983418     IErMin= 2 ErrMin= 1.10D-02
 ErrMax= 1.10D-02  0.00D+00 EMaxC= 1.00D-01 BMatC= 1.09D-01 BMatP= 4.69D-01
 IDIUse=3 WtCom= 8.90D-01 WtEn= 1.10D-01
 Coeff-Com: -0.719D+00 0.172D+01
 Coeff-En:   0.000D+00 0.100D+01
 Coeff:     -0.640D+00 0.164D+01
 Gap=     0.371 Goal=   None    Shift=    0.000
 RMSDP=1.21D-03 MaxDP=5.71D-02 DE=-1.13D-01 OVMax= 6.42D-02

 Cycle   3  Pass 1  IDiag  1:
 E= -224.895323356641     Delta-E=       -0.101391373223 Rises=F Damp=F
 DIIS: error= 5.70D-03 at cycle   3 NSaved=   3.
 NSaved= 3 IEnMin= 3 EnMin= -224.895323356641     IErMin= 3 ErrMin= 5.70D-03
 ErrMax= 5.70D-03  0.00D+00 EMaxC= 1.00D-01 BMatC= 5.34D-03 BMatP= 1.09D-01
 IDIUse=3 WtCom= 9.43D-01 WtEn= 5.70D-02
 Coeff-Com: -0.247D+00 0.452D+00 0.794D+00
 Coeff-En:   0.000D+00 0.000D+00 0.100D+01
 Coeff:     -0.233D+00 0.426D+00 0.806D+00
 Gap=     0.351 Goal=   None    Shift=    0.000
 RMSDP=1.71D-04 MaxDP=6.73D-03 DE=-1.01D-01 OVMax= 2.66D-02

 Cycle   4  Pass 1  IDiag  1:
 E= -224.899789290912     Delta-E=       -0.004465934271 Rises=F Damp=F
 DIIS: error= 1.31D-03 at cycle   4 NSaved=   4.
 NSaved= 4 IEnMin= 4 EnMin= -224.899789290912     IErMin= 4 ErrMin= 1.31D-03
 ErrMax= 1.31D-03  0.00D+00 EMaxC= 1.00D-01 BMatC= 2.83D-04 BMatP= 5.34D-03
 IDIUse=3 WtCom= 9.87D-01 WtEn= 1.31D-02
 Coeff-Com: -0.556D-01 0.924D-01 0.246D+00 0.718D+00
 Coeff-En:   0.000D+00 0.000D+00 0.000D+00 0.100D+01
 Coeff:     -0.549D-01 0.912D-01 0.242D+00 0.721D+00
 Gap=     0.347 Goal=   None    Shift=    0.000
 RMSDP=4.05D-05 MaxDP=1.22D-03 DE=-4.47D-03 OVMax= 5.26D-03

 Cycle   5  Pass 1  IDiag  1:
 E= -224.900060171559     Delta-E=       -0.000270880647 Rises=F Damp=F
 DIIS: error= 7.08D-04 at cycle   5 NSaved=   5.
 NSaved= 5 IEnMin= 5 EnMin= -224.900060171559     IErMin= 5 ErrMin= 7.08D-04
 ErrMax= 7.08D-04  0.00D+00 EMaxC= 1.00D-01 BMatC= 2.25D-05 BMatP= 2.83D-04
 IDIUse=3 WtCom= 9.93D-01 WtEn= 7.08D-03
 Coeff-Com:  0.158D-01-0.303D-01-0.486D-01 0.990D-01 0.964D+00
 Coeff-En:   0.000D+00 0.000D+00 0.000D+00 0.000D+00 0.100D+01
 Coeff:      0.157D-01-0.301D-01-0.482D-01 0.983D-01 0.964D+00
 Gap=     0.348 Goal=   None    Shift=    0.000
 RMSDP=2.16D-05 MaxDP=8.52D-04 DE=-2.71D-04 OVMax= 3.73D-03

 Cycle   6  Pass 1  IDiag  1:
 E= -224.900108798041     Delta-E=       -0.000048626481 Rises=F Damp=F
 DIIS: error= 2.02D-04 at cycle   6 NSaved=   6.
 NSaved= 6 IEnMin= 6 EnMin= -224.900108798041     IErMin= 6 ErrMin= 2.02D-04
 ErrMax= 2.02D-04  0.00D+00 EMaxC= 1.00D-01 BMatC= 3.34D-06 BMatP= 2.25D-05
 IDIUse=3 WtCom= 9.98D-01 WtEn= 2.02D-03
 Coeff-Com:  0.616D-02-0.103D-01-0.259D-01-0.109D+00-0.665D-01 0.121D+01
 Coeff-En:   0.000D+00 0.000D+00 0.000D+00 0.000D+00 0.000D+00 0.100D+01
 Coeff:      0.615D-02-0.103D-01-0.259D-01-0.109D+00-0.663D-01 0.121D+01
 Gap=     0.348 Goal=   None    Shift=    0.000
 RMSDP=1.13D-05 MaxDP=3.50D-04 DE=-4.86D-05 OVMax= 1.97D-03

 Cycle   7  Pass 1  IDiag  1:
 E= -224.900120138253     Delta-E=       -0.000011340212 Rises=F Damp=F
 DIIS: error= 8.76D-05 at cycle   7 NSaved=   7.
 NSaved= 7 IEnMin= 7 EnMin= -224.900120138253     IErMin= 7 ErrMin= 8.76D-05
 ErrMax= 8.76D-05  0.00D+00 EMaxC= 1.00D-01 BMatC= 3.60D-07 BMatP= 3.34D-06
 IDIUse=1 WtCom= 1.00D+00 WtEn= 0.00D+00
 Coeff-Com: -0.134D-02 0.263D-02 0.490D-02-0.105D-01-0.680D-01-0.123D-01
 Coeff-Com:  0.108D+01
 Coeff:     -0.134D-02 0.263D-02 0.490D-02-0.105D-01-0.680D-01-0.123D-01
 Coeff:      0.108D+01
 Gap=     0.348 Goal=   None    Shift=    0.000
 RMSDP=3.15D-06 MaxDP=1.85D-04 DE=-1.13D-05 OVMax= 7.20D-04

 Cycle   8  Pass 1  IDiag  1:
 E= -224.900121575140     Delta-E=       -0.000001436887 Rises=F Damp=F
 DIIS: error= 3.29D-05 at cycle   8 NSaved=   8.
 NSaved= 8 IEnMin= 8 EnMin= -224.900121575140     IErMin= 8 ErrMin= 3.29D-05
 ErrMax= 3.29D-05  0.00D+00 EMaxC= 1.00D-01 BMatC= 1.06D-07 BMatP= 3.60D-07
 IDIUse=1 WtCom= 1.00D+00 WtEn= 0.00D+00
 Coeff-Com: -0.169D-02 0.289D-02 0.678D-02 0.238D-01 0.101D-01-0.327D+00
 Coeff-Com:  0.163D+00 0.112D+01
 Coeff:     -0.169D-02 0.289D-02 0.678D-02 0.238D-01 0.101D-01-0.327D+00
 Coeff:      0.163D+00 0.112D+01
 Gap=     0.348 Goal=   None    Shift=    0.000
 RMSDP=1.89D-06 MaxDP=8.77D-05 DE=-1.44D-06 OVMax= 4.18D-04

 Cycle   9  Pass 1  IDiag  1:
 E= -224.900121893194     Delta-E=       -0.000000318055 Rises=F Damp=F
 DIIS: error= 3.65D-06 at cycle   9 NSaved=   9.
 NSaved= 9 IEnMin= 9 EnMin= -224.900121893194     IErMin= 9 ErrMin= 3.65D-06
 ErrMax= 3.65D-06  0.00D+00 EMaxC= 1.00D-01 BMatC= 2.65D-09 BMatP= 1.06D-07
 IDIUse=1 WtCom= 1.00D+00 WtEn= 0.00D+00
 Coeff-Com:  0.357D-03-0.632D-03-0.165D-02-0.317D-02 0.285D-02 0.557D-01
 Coeff-Com: -0.621D-01-0.242D+00 0.125D+01
 Coeff:      0.357D-03-0.632D-03-0.165D-02-0.317D-02 0.285D-02 0.557D-01
 Coeff:     -0.621D-01-0.242D+00 0.125D+01
 Gap=     0.348 Goal=   None    Shift=    0.000
 RMSDP=4.42D-07 MaxDP=1.43D-05 DE=-3.18D-07 OVMax= 5.80D-05

 Cycle  10  Pass 1  IDiag  1:
 E= -224.900121901828     Delta-E=       -0.000000008634 Rises=F Damp=F
 DIIS: error= 1.45D-06 at cycle  10 NSaved=  10.
 NSaved=10 IEnMin=10 EnMin= -224.900121901828     IErMin=10 ErrMin= 1.45D-06
 ErrMax= 1.45D-06  0.00D+00 EMaxC= 1.00D-01 BMatC= 3.79D-10 BMatP= 2.65D-09
 IDIUse=1 WtCom= 1.00D+00 WtEn= 0.00D+00
 Coeff-Com:  0.166D-03-0.287D-03-0.705D-03-0.168D-02-0.407D-03 0.287D-01
 Coeff-Com: -0.163D-01-0.115D+00 0.168D+00 0.938D+00
 Coeff:      0.166D-03-0.287D-03-0.705D-03-0.168D-02-0.407D-03 0.287D-01
 Coeff:     -0.163D-01-0.115D+00 0.168D+00 0.938D+00
 Gap=     0.348 Goal=   None    Shift=    0.000
 RMSDP=1.17D-07 MaxDP=3.66D-06 DE=-8.63D-09 OVMax= 1.20D-05

 Cycle  11  Pass 1  IDiag  1:
 E= -224.900121902633     Delta-E=       -0.000000000805 Rises=F Damp=F
 DIIS: error= 4.65D-07 at cycle  11 NSaved=  11.
 NSaved=11 IEnMin=11 EnMin= -224.900121902633     IErMin=11 ErrMin= 4.65D-07
 ErrMax= 4.65D-07  0.00D+00 EMaxC= 1.00D-01 BMatC= 7.14D-11 BMatP= 3.79D-10
 IDIUse=1 WtCom= 1.00D+00 WtEn= 0.00D+00
 Coeff-Com: -0.409D-04 0.738D-04 0.190D-03 0.509D-03-0.831D-03-0.660D-02
 Coeff-Com:  0.106D-01 0.279D-01-0.215D+00 0.103D+00 0.108D+01
 Coeff:     -0.409D-04 0.738D-04 0.190D-03 0.509D-03-0.831D-03-0.660D-02
 Coeff:      0.106D-01 0.279D-01-0.215D+00 0.103D+00 0.108D+01
 Gap=     0.348 Goal=   None    Shift=    0.000
 RMSDP=6.03D-08 MaxDP=2.08D-06 DE=-8.05D-10 OVMax= 6.13D-06

 Cycle  12  Pass 1  IDiag  1:
 E= -224.900121902794     Delta-E=       -0.000000000161 Rises=F Damp=F
 DIIS: error= 1.49D-07 at cycle  12 NSaved=  12.
 NSaved=12 IEnMin=12 EnMin= -224.900121902794     IErMin=12 ErrMin= 1.49D-07
 ErrMax= 1.49D-07  0.00D+00 EMaxC= 1.00D-01 BMatC= 4.33D-12 BMatP= 7.14D-11
 IDIUse=1 WtCom= 1.00D+00 WtEn= 0.00D+00
 Coeff-Com: -0.925D-05 0.159D-04 0.266D-04 0.120D-03 0.939D-04-0.153D-02
 Coeff-Com:  0.351D-03 0.559D-02 0.148D-01-0.847D-01-0.145D+00 0.121D+01
 Coeff:     -0.925D-05 0.159D-04 0.266D-04 0.120D-03 0.939D-04-0.153D-02
 Coeff:      0.351D-03 0.559D-02 0.148D-01-0.847D-01-0.145D+00 0.121D+01
 Gap=     0.348 Goal=   None    Shift=    0.000
 RMSDP=1.27D-08 MaxDP=5.39D-07 DE=-1.61D-10 OVMax= 2.03D-06

 Cycle  13  Pass 1  IDiag  1:
 E= -224.900121902802     Delta-E=       -0.000000000008 Rises=F Damp=F
 DIIS: error= 6.37D-08 at cycle  13 NSaved=  13.
 NSaved=13 IEnMin=13 EnMin= -224.900121902802     IErMin=13 ErrMin= 6.37D-08
 ErrMax= 6.37D-08  0.00D+00 EMaxC= 1.00D-01 BMatC= 5.42D-13 BMatP= 4.33D-12
 IDIUse=1 WtCom= 1.00D+00 WtEn= 0.00D+00
 Coeff-Com:  0.325D-05-0.592D-05-0.190D-04-0.400D-04 0.659D-04 0.584D-03
 Coeff-Com: -0.997D-03-0.274D-02 0.252D-01-0.253D-01-0.120D+00 0.176D+00
 Coeff-Com:  0.947D+00
 Coeff:      0.325D-05-0.592D-05-0.190D-04-0.400D-04 0.659D-04 0.584D-03
 Coeff:     -0.997D-03-0.274D-02 0.252D-01-0.253D-01-0.120D+00 0.176D+00
 Coeff:      0.947D+00
 Gap=     0.348 Goal=   None    Shift=    0.000
 RMSDP=3.35D-09 MaxDP=1.26D-07 DE=-7.73D-12 OVMax= 4.65D-07

 SCF Done:  E(RHF) =  -224.900121903     A.U. after   13 cycles
            NFock= 13  Conv=0.33D-08     -V/T= 2.0004
 KE= 2.248014506870D+02 PE=-8.562793089000D+02 EE= 2.412812267750D+02
 Leave Link  502 at Tue Sep 30 16:59:12 2025, MaxMem=  4294967296 cpu:             204.5 elap:              18.7
 (Enter /software/sse/easybuild/prefix/software/Gaussian/16.C.01-avx2-nsc1/g16/l801.exe)
 ExpMin= 2.53D-02 ExpMax= 1.14D+04 ExpMxC= 3.89D+02 IAcc=3 IRadAn=         5 AccDes= 0.00D+00
 HarFok:  IExCor=  205 AccDes= 0.00D+00 IRadAn=         5 IDoV=-2 UseB2=F ITyADJ=14
 ICtDFT= 12500011 ScaDFX=  1.000000  1.000000  1.000000  1.000000
 Largest valence mixing into a core orbital is  1.90D-04
 Largest core mixing into a valence orbital is  3.25D-05
 Range of M.O.s used for correlation:     6   322
 NBasis=   322 NAE=    18 NBE=    18 NFC=     5 NFV=     0
 NROrb=    317 NOA=    13 NOB=    13 NVA=   304 NVB=   304

 **** Warning!!: The largest alpha MO coefficient is  0.10183015D+03

 Leave Link  801 at Tue Sep 30 16:59:12 2025, MaxMem=  4294967296 cpu:               0.9 elap:               0.1
 (Enter /software/sse/easybuild/prefix/software/Gaussian/16.C.01-avx2-nsc1/g16/l906.exe)
 Frozen-core derivative calculation, NFC=   5 NFV=   0.
 FulOut=F Deriv=T AODrv=T NAtomX=     9
   MMem=           9  MDisk=          13 MDiskD=          13
  W3Min=     2173500 MinDsk=     3783500 NBas6D=         375
 NBas2D=       71391    NTT=       70500    LW2=     3500000
    MDV=  4293656160 MDiskM=       57222 NBas2p=       71218
 Disk-based method using ON**2 memory for 13 occupieds at a time.
 Estimated scratch disk usage=  1303696744 words.
 IMap=   1   2   3   4   5   6   7   8   9  10  11  12  13  14  15  16  17  18
 Actual    scratch disk usage=  1194268008 words.
 JobTyp=1 Pass  1:  I=   6 to  18 NPSUse= 16 ParTrn=T ParDer=T DoDerP=T.
 (rs|ai) integrals will be sorted in core.
 Spin components of T(2) and E(2):
     alpha-alpha T2 =       0.3793554285D-01 E2=     -0.1142531648D+00
     alpha-beta  T2 =       0.2011717647D+00 E2=     -0.6624855764D+00
     beta-beta   T2 =       0.3793554285D-01 E2=     -0.1142531648D+00
 The integrals were generated   1 times.
 ANorm=    0.1130063206D+01
 E2 =    -0.8909919061D+00 EUMP2 =    -0.22579111380889D+03
 Leave Link  906 at Tue Sep 30 17:00:24 2025, MaxMem=  4294967296 cpu:            1139.6 elap:              71.7
 (Enter /software/sse/easybuild/prefix/software/Gaussian/16.C.01-avx2-nsc1/g16/l1002.exe)
 Minotr:  Closed shell wavefunction.
          Computing MP2/KS-MP2 derivatives.
          Using Z-Vector for PSCF gradient.
          Skipping F1 and S1 gradient terms here.
          IDoAtm=111111111
          Frozen-core window.
          Direct CPHF calculation.
          Differentiating once with respect to electric field.
                with respect to dipole field.
          Differentiating once with respect to nuclear coordinates.
          Using symmetry in CPHF.
          Requested convergence is 1.0D-10 RMS, and 1.0D-09 maximum.
          NewPWx=F KeepS1=T KeepF1=T KeepIn=T MapXYZ=F SortEE=F KeepMc=T.
 Keep R1 ints in memory in symmetry-blocked form, NReq=2036748194.
 FoFCou: FMM=F IPFlag=           0 FMFlag=           0 FMFlg1=           0
         NFxFlg=           0 DoJE=F BraDBF=F KetDBF=F FulRan=T
         wScrn=  0.000000 ICntrl=       600 IOpCl=  0 I1Cent=           0 NGrid=           0
         NMat0=    1 NMatS0=  52003 NMatT0=    0 NMatD0=    1 NMtDS0=    0 NMtDT0=    0
 Petite list used in FoFCou.
          MDV=    4294967296 using IRadAn=       5.
          Solving linear equations separately, MaxMat=       0.
          There are     1 degrees of freedom in the 1st order CPHF.  IDoFFX=0 NUNeed=     1.
 LinEq1:  Iter=  0 NonCon=     1 RMS=2.90D-03 Max=5.35D-02 NDo=     1
 AX will form     1 AO Fock derivatives at one time.
 LinEq1:  Iter=  1 NonCon=     1 RMS=7.46D-04 Max=1.19D-02 NDo=     1
 LinEq1:  Iter=  2 NonCon=     1 RMS=3.09D-04 Max=8.10D-03 NDo=     1
 LinEq1:  Iter=  3 NonCon=     1 RMS=8.38D-05 Max=1.47D-03 NDo=     1
 LinEq1:  Iter=  4 NonCon=     1 RMS=3.24D-05 Max=7.72D-04 NDo=     1
 LinEq1:  Iter=  5 NonCon=     1 RMS=1.25D-05 Max=2.06D-04 NDo=     1
 LinEq1:  Iter=  6 NonCon=     1 RMS=3.03D-06 Max=6.82D-05 NDo=     1
 LinEq1:  Iter=  7 NonCon=     1 RMS=1.21D-06 Max=3.11D-05 NDo=     1
 LinEq1:  Iter=  8 NonCon=     1 RMS=3.85D-07 Max=8.62D-06 NDo=     1
 LinEq1:  Iter=  9 NonCon=     1 RMS=1.00D-07 Max=1.57D-06 NDo=     1
 LinEq1:  Iter= 10 NonCon=     1 RMS=4.45D-08 Max=9.35D-07 NDo=     1
 LinEq1:  Iter= 11 NonCon=     1 RMS=1.06D-08 Max=1.43D-07 NDo=     1
 LinEq1:  Iter= 12 NonCon=     1 RMS=2.46D-09 Max=3.64D-08 NDo=     1
 LinEq1:  Iter= 13 NonCon=     1 RMS=4.37D-10 Max=5.23D-09 NDo=     1
 LinEq1:  Iter= 14 NonCon=     1 RMS=1.89D-10 Max=3.05D-09 NDo=     1
 LinEq1:  Iter= 15 NonCon=     0 RMS=3.70D-11 Max=4.01D-10 NDo=     1
 Linear equations converged to 1.000D-10 1.000D-09 after    15 iterations.
 End of Minotr F.D. properties file   721 does not exist.
 End of Minotr F.D. properties file   722 does not exist.
 End of Minotr F.D. properties file   788 does not exist.
 Leave Link 1002 at Tue Sep 30 17:00:44 2025, MaxMem=  4294967296 cpu:             204.3 elap:              20.5
 (Enter /software/sse/easybuild/prefix/software/Gaussian/16.C.01-avx2-nsc1/g16/l601.exe)
 Copying SCF densities to generalized density rwf, IOpCl= 0 IROHF=0.
 SCF density gives NOpUse=  2 NOpAll=  2.

 **********************************************************************

            Population analysis using the MP2 Density.

 **********************************************************************

 Orbital symmetries:
 BldTbl:  Degeneracy threshold= 1.00D-02
       Occupied  (A') (A') (A') (A') (A') (A') (A') (A') (A') (A')
                 (A') (A') (A") (A') (A') (A') (A") (A")
       Virtual   (A') (A') (A') (A') (A") (A') (A') (A") (A') (A')
                 (A") (A') (A') (A') (A') (A") (A") (A') (A') (A")
                 (A') (A") (A') (A') (A') (A") (A') (A') (A') (A')
                 (A') (A') (A") (A') (A") (A") (A') (A') (A') (A")
                 (A') (A") (A') (A') (A') (A") (A') (A') (A") (A')
                 (A') (A") (A') (A') (A') (A") (A") (A') (A') (A')
                 (A') (A') (A") (A') (A') (A") (A') (A') (A") (A')
                 (A") (A') (A") (A') (A') (A") (A') (A') (A') (A')
                 (A') (A") (A') (A") (A") (A') (A") (A') (A') (A")
                 (A') (A') (A') (A') (A") (A') (A") (A") (A') (A")
                 (A') (A') (A') (A") (A') (A') (A') (A") (A") (A')
                 (A') (A") (A') (A') (A') (A") (A") (A') (A') (A')
                 (A") (A') (A") (A') (A") (A') (A") (A') (A') (A")
                 (A') (A') (A") (A') (A") (A') (A') (A") (A') (A')
                 (A") (A") (A') (A') (A") (A') (A') (A') (A') (A")
                 (A") (A') (A') (A") (A') (A') (A") (A') (A') (A")
                 (A') (A") (A') (A") (A') (A") (A') (A') (A') (A')
                 (A") (A") (A') (A') (A") (A') (A') (A") (A') (A')
                 (A") (A') (A') (A') (A') (A") (A') (A') (A") (A')
                 (A") (A") (A') (A') (A') (A") (A') (A') (A") (A")
                 (A') (A") (A") (A') (A") (A') (A") (A') (A') (A")
                 (A') (A") (A') (A') (A") (A") (A') (A') (A') (A')
                 (A') (A") (A') (A") (A') (A") (A') (A') (A') (A')
                 (A") (A") (A') (A') (A") (A') (A") (A') (A") (A')
                 (A') (A") (A') (A') (A") (A') (A') (A') (A") (A')
                 (A") (A") (A') (A") (A') (A") (A') (A') (A') (A')
                 (A") (A') (A') (A') (A") (A") (A') (A') (A") (A")
                 (A') (A") (A') (A') (A") (A') (A") (A") (A') (A")
                 (A') (A") (A') (A') (A') (A") (A') (A') (A') (A')
                 (A') (A') (A') (A') (A') (A') (A') (A') (A') (A')
                 (A') (A') (A') (A')
 The electronic state is 1-A'.
 Alpha  occ. eigenvalues --  -15.61812 -15.53905 -11.28957 -11.25606 -11.23736
 Alpha  occ. eigenvalues --   -1.35452  -1.17417  -1.01616  -0.83333  -0.80526
 Alpha  occ. eigenvalues --   -0.76645  -0.61521  -0.60695  -0.60513  -0.57439
 Alpha  occ. eigenvalues --   -0.43617  -0.40294  -0.32685
 Alpha virt. eigenvalues --    0.02120   0.03453   0.04140   0.05240   0.07161
 Alpha virt. eigenvalues --    0.08504   0.10420   0.10557   0.10908   0.11174
 Alpha virt. eigenvalues --    0.11735   0.12677   0.13067   0.14103   0.15485
 Alpha virt. eigenvalues --    0.16107   0.18093   0.18849   0.19353   0.20040
 Alpha virt. eigenvalues --    0.20556   0.22524   0.22849   0.24820   0.25682
 Alpha virt. eigenvalues --    0.27301   0.27734   0.29528   0.31063   0.31852
 Alpha virt. eigenvalues --    0.32187   0.32404   0.33319   0.33916   0.34344
 Alpha virt. eigenvalues --    0.36165   0.37482   0.38644   0.39254   0.39898
 Alpha virt. eigenvalues --    0.41127   0.42210   0.43297   0.44802   0.45806
 Alpha virt. eigenvalues --    0.46318   0.47407   0.48264   0.49137   0.49447
 Alpha virt. eigenvalues --    0.49641   0.50709   0.50813   0.51963   0.52893
 Alpha virt. eigenvalues --    0.54495   0.58279   0.58684   0.60992   0.61925
 Alpha virt. eigenvalues --    0.62862   0.65536   0.67278   0.67669   0.69963
 Alpha virt. eigenvalues --    0.70258   0.70694   0.71734   0.72436   0.74536
 Alpha virt. eigenvalues --    0.75444   0.78235   0.79606   0.80267   0.81262
 Alpha virt. eigenvalues --    0.84105   0.86377   0.86654   0.87540   0.89028
 Alpha virt. eigenvalues --    0.92302   0.92922   0.93170   0.93701   0.94052
 Alpha virt. eigenvalues --    0.96068   0.97794   0.98117   0.99779   1.00704
 Alpha virt. eigenvalues --    1.00810   1.03041   1.04189   1.04380   1.05181
 Alpha virt. eigenvalues --    1.06253   1.06334   1.07563   1.10968   1.11013
 Alpha virt. eigenvalues --    1.11862   1.14131   1.15468   1.16823   1.17862
 Alpha virt. eigenvalues --    1.19031   1.20690   1.20930   1.23512   1.24028
 Alpha virt. eigenvalues --    1.27325   1.27464   1.29353   1.30743   1.33390
 Alpha virt. eigenvalues --    1.34597   1.36564   1.40453   1.41255   1.42408
 Alpha virt. eigenvalues --    1.42992   1.47360   1.47420   1.48370   1.50650
 Alpha virt. eigenvalues --    1.51000   1.53180   1.53927   1.56406   1.56846
 Alpha virt. eigenvalues --    1.61827   1.63618   1.67486   1.68018   1.70178
 Alpha virt. eigenvalues --    1.70473   1.74226   1.75747   1.76146   1.79184
 Alpha virt. eigenvalues --    1.82344   1.83469   1.84996   1.87253   1.92398
 Alpha virt. eigenvalues --    1.95377   1.97607   1.98935   2.03047   2.03097
 Alpha virt. eigenvalues --    2.03333   2.03624   2.06110   2.08517   2.11064
 Alpha virt. eigenvalues --    2.13472   2.15070   2.15674   2.18041   2.19831
 Alpha virt. eigenvalues --    2.22527   2.25158   2.27312   2.29032   2.32331
 Alpha virt. eigenvalues --    2.35231   2.36108   2.39901   2.43643   2.45227
 Alpha virt. eigenvalues --    2.48812   2.50532   2.51404   2.56250   2.58044
 Alpha virt. eigenvalues --    2.60650   2.61937   2.69468   2.70083   2.76827
 Alpha virt. eigenvalues --    2.77032   2.79625   2.89762   2.90987   2.99192
 Alpha virt. eigenvalues --    3.02146   3.02971   3.11430   3.12852   3.19169
 Alpha virt. eigenvalues --    3.27807   3.31475   3.33849   3.38317   3.41133
 Alpha virt. eigenvalues --    3.47171   3.47256   3.51135   3.52701   3.56520
 Alpha virt. eigenvalues --    3.58751   3.61503   3.65909   3.68851   3.69709
 Alpha virt. eigenvalues --    3.70845   3.75122   3.76964   3.78030   3.78687
 Alpha virt. eigenvalues --    3.80821   3.83808   3.86124   3.88457   3.89293
 Alpha virt. eigenvalues --    3.92633   3.93294   4.00214   4.05453   4.10827
 Alpha virt. eigenvalues --    4.12260   4.13534   4.14968   4.17666   4.18462
 Alpha virt. eigenvalues --    4.20804   4.22640   4.24119   4.26085   4.28746
 Alpha virt. eigenvalues --    4.29009   4.31953   4.32352   4.40072   4.42061
 Alpha virt. eigenvalues --    4.42847   4.46572   4.51311   4.54274   4.58330
 Alpha virt. eigenvalues --    4.61333   4.67347   4.68272   4.72465   4.81040
 Alpha virt. eigenvalues --    4.81450   4.83961   4.90410   4.95019   4.97255
 Alpha virt. eigenvalues --    4.97615   5.02183   5.03528   5.07475   5.08246
 Alpha virt. eigenvalues --    5.18535   5.18948   5.19599   5.26848   5.34227
 Alpha virt. eigenvalues --    5.34570   5.38281   5.41332   5.48645   5.51103
 Alpha virt. eigenvalues --    5.52728   5.57673   5.58202   5.62851   5.66661
 Alpha virt. eigenvalues --    5.70120   5.76803   5.78938   5.80965   5.83587
 Alpha virt. eigenvalues --    5.84072   5.86431   5.90230   5.96860   5.98832
 Alpha virt. eigenvalues --    6.05720   6.09391   6.12920   6.25739   6.29644
 Alpha virt. eigenvalues --    6.35012   6.44238   6.50193   6.58957   6.62506
 Alpha virt. eigenvalues --    6.70164   6.77535   6.84253   6.94721   7.06653
 Alpha virt. eigenvalues --    7.13286   7.20085   7.60733   7.87807  16.64872
 Alpha virt. eigenvalues --   16.91227  17.97274  18.66332  19.16819
          Condensed to atoms (all electrons):
               1          2          3          4          5          6
     1  C    7.760937   0.062293  -0.753766  -0.033187   0.122586  -0.496023
     2  H    0.062293   0.509524  -0.060549  -0.031547   0.005074  -0.011867
     3  C   -0.753766  -0.060549   7.798161   0.029835  -0.331554  -0.339279
     4  H   -0.033187  -0.031547   0.029835   0.526217  -0.029997  -0.012575
     5  N    0.122586   0.005074  -0.331554  -0.029997   7.985567   0.006846
     6  C   -0.496023  -0.011867  -0.339279  -0.012575   0.006846   7.219981
     7  H   -0.049428  -0.004873  -0.014272  -0.003534  -0.051413   0.094226
     8  N   -0.020259  -0.019060  -0.028051  -0.003733  -0.293177   0.268452
     9  H   -0.093572   0.002005   0.019014   0.001615  -0.001270  -0.095795
               7          8          9
     1  C   -0.049428  -0.020259  -0.093572
     2  H   -0.004873  -0.019060   0.002005
     3  C   -0.014272  -0.028051   0.019014
     4  H   -0.003534  -0.003733   0.001615
     5  N   -0.051413  -0.293177  -0.001270
     6  C    0.094226   0.268452  -0.095795
     7  H    0.454844  -0.012148  -0.000530
     8  N   -0.012148   6.713031   0.342801
     9  H   -0.000530   0.342801   0.705159
 Mulliken charges:
               1
     1  C   -0.499582
     2  H    0.549000
     3  C   -0.319539
     4  H    0.556905
     5  N   -0.412661
     6  C   -0.633966
     7  H    0.587126
     8  N    0.052144
     9  H    0.120573
 Sum of Mulliken charges =  -0.00000
 Mulliken charges with hydrogens summed into heavy atoms:
               1
     1  C    0.049418
     3  C    0.237366
     5  N   -0.412661
     6  C   -0.046840
     8  N    0.172716
 DipInt: DoE/N= T F RetVal/Mat= T F Init=T NMatP=  1 IDeriv=0 Min/MaxMlt=  0  4
 Entering OneElI...
 OneElI was handed  4294607186 working-precision words.
 Multipole integrals L=0 to 4 MinM= 0 MaxM= 0.
 Requested accuracy = 0.1000D-12
 ShPair: Thresh= 1.00D-13 NBox=     0 BxSize= 0.00D+00 RnKept= 7.89D+00
         NSMCal=                 5671 NSMKep=                5666
 PrmmSu-InSpLW:  IPartL=    0 NPrtUS=    1 NPrtUL=    1 DoSpLW=F IThBeg=    0 IThEnd=    0 NThAct=    1.
 PrSmSu:  IncTry=   512 NBBP=           5666 NTPThr=   100 NPartT=    1 Incr=          56 LDynOK=F GPUOK=F.
 PrsmSu:  NPrtUS=   1 ThrOK=F IAlg=2 LenDen=           0 ISkipM=0 DoSpLW=F IThBeg=    0 IThEnd=    0.
 Prism:   IPart=     0 DynPar=F LinDyn=F Incr=          56.
 PRISM was handed  4294188687 working-precision words and  5666 shell-pairs
 IPart=  0 NShTot=        5666 NBatch=          80 AvBLen=        70.8
 PrsmSu-ThDecC:  IPartSL=    0    0 NPrtUSL=    1    1 IThBeg=    0 IThEnd=    0 CPU=   -1 GPU=   -1 NThAct=    1.
 PrSmSu:  NxtVal=             57.
 Electronic moments (au):
        -36.00000000          0.48279911          1.39705375         -0.00000000
       -129.58091920       -127.62695421        -23.96835267          0.32665815
         -0.00000000         -0.00000000         -8.30958558         19.14569607
         -0.00000000        -12.36270975          1.09501734         -0.00000000
         -1.38555535          1.78045506         -0.00000000         -0.00000000
      -1191.40999406      -1058.72527878        -96.69639059          5.90680651
         -0.00000000         60.73672438         -0.00000000         -0.00000000
         -0.00000000       -358.77351841       -107.31095865        -99.68877712
         -0.00000000         -0.00000000          1.42063886
 Electronic spatial extent (au):  <R**2>=            281.1762
 DipInt: DoE/N= F T RetVal/Mat= T F Init=T NMatP=  1 IDeriv=0 Min/MaxMlt=  0  4
 Nuclear    moments (au):
         36.00000000          0.00000000         -0.00000000          0.00000000
        109.28555163        108.07223146          0.00000000         -2.84225727
          0.00000000          0.00000000          9.42076724          3.54812322
          0.00000000         20.52735030          8.09073584          0.00000000
          0.00000000          0.00000000          0.00000000          0.00000000
        764.75999249        679.38119491          0.00000000        -15.18512047
          0.00000000        -87.53887665          0.00000000          0.00000000
          0.00000000        201.52263398          0.00000000          0.00000000
          0.00000000          0.00000000          0.00000000
 Total      moments (au):
         -0.00000000          0.48279911          1.39705375          0.00000000
        -20.29536757        -19.55472275        -23.96835267         -2.51559911
          0.00000000          0.00000000          1.11118166         22.69381930
          0.00000000          8.16464055          9.18575318          0.00000000
         -1.38555535          1.78045506          0.00000000          0.00000000
       -426.65000157       -379.34408388        -96.69639059         -9.27831395
          0.00000000        -26.80215227          0.00000000          0.00000000
          0.00000000       -157.25088442       -107.31095865        -99.68877712
          0.00000000          0.00000000          1.42063886
 Traceless Quadrup. (au):
          0.97744676          1.71809158         -2.69553834         -2.51559911
          0.00000000          0.00000000
 Charge=             -0.0000 electrons
 Dipole moment (field-independent basis, Debye):
    X=              1.2272    Y=              3.5510    Z=              0.0000  Tot=              3.7570
 Quadrupole moment (field-independent basis, Debye-Ang):
   XX=            -27.2980   YY=            -26.3018   ZZ=            -32.2383
   XY=             -3.3836   XZ=              0.0000   YZ=              0.0000
 Traceless Quadrupole moment (field-independent basis, Debye-Ang):
   XX=              1.3147   YY=              2.3109   ZZ=             -3.6256
   XY=             -3.3836   XZ=              0.0000   YZ=              0.0000
 Octapole moment (field-independent basis, Debye-Ang**2):
  XXX=              0.7909  YYY=             16.1526  ZZZ=              0.0000  XYY=              5.8113
  XXY=              6.5381  XXZ=              0.0000  XZZ=             -0.9862  YZZ=              1.2673
  YYZ=              0.0000  XYZ=              0.0000
 Hexadecapole moment (field-independent basis, Debye-Ang**3):
 XXXX=           -160.6968 YYYY=           -142.8792 ZZZZ=            -36.4205 XXXY=             -3.4947
 XXXZ=              0.0000 YYYX=            -10.0950 YYYZ=              0.0000 ZZZX=              0.0000
 ZZZY=              0.0000 XXYY=            -59.2282 XXZZ=            -40.4185 YYZZ=            -37.5476
 XXYZ=              0.0000 YYXZ=              0.0000 ZZXY=              0.5351
 N-N= 1.652965095352D+02 E-N=-8.570142530523D+02  KE= 2.259179826365D+02
 Symmetry A'   KE= 2.176981237110D+02
 Symmetry A"   KE= 8.219858925535D+00
 SetAtRh:  ITypeU=  23 NETotI=      -1 ICharg=  0 NETot=      36.
 StAtR1:  I=    1 I1=    1 IA=  6 C=   6.0 OKShel=TTT
                                                  SSP
                                                  222
 StAtR1:  I=    2 I1=    2 IA=  1 C=   1.0 OKShel=T
                                                  S
                                                  1
 StAtR1:  I=    3 I1=    3 IA=  6 C=   6.0 OKShel=TTT
                                                  SSP
                                                  222
 StAtR1:  I=    4 I1=    4 IA=  1 C=   1.0 OKShel=T
                                                  S
                                                  1
 StAtR1:  I=    5 I1=    5 IA=  7 C=   7.0 OKShel=TTT
                                                  SSP
                                                  223
 StAtR1:  I=    6 I1=    6 IA=  6 C=   6.0 OKShel=TTT
                                                  SSP
                                                  222
 StAtR1:  I=    7 I1=    7 IA=  1 C=   1.0 OKShel=T
                                                  S
                                                  1
 StAtR1:  I=    8 I1=    8 IA=  7 C=   7.0 OKShel=TTT
                                                  SSP
                                                  223
 StAtR1:  I=    9 I1=    9 IA=  1 C=   1.0 OKShel=T
                                                  S
                                                  1
          I=    1 IA=  6 I1=    1 NAtG=23 NE=   6.000 C=   6.000 Err= 1.75D-11
          I=    2 IA=  1 I1=    2 NAtG=20 NE=   1.000 C=   1.000 Err= 2.80D-12
          I=    3 IA=  6 I1=    3 NAtG=23 NE=   6.000 C=   6.000 Err= 1.75D-11
          I=    4 IA=  1 I1=    4 NAtG=20 NE=   1.000 C=   1.000 Err= 2.80D-12
          I=    5 IA=  7 I1=    5 NAtG=22 NE=   7.000 C=   7.000 Err= 6.08D-13
          I=    6 IA=  6 I1=    6 NAtG=23 NE=   6.000 C=   6.000 Err= 1.75D-11
          I=    7 IA=  1 I1=    7 NAtG=20 NE=   1.000 C=   1.000 Err= 2.80D-12
          I=    8 IA=  7 I1=    8 NAtG=22 NE=   7.000 C=   7.000 Err= 6.08D-13
          I=    9 IA=  1 I1=    9 NAtG=20 NE=   1.000 C=   1.000 Err= 2.80D-12
 Pruned (  99, 590) grid will be used in numerical quadrature.
 IPart=  0 IRanGd=          0 ScrnBf=T ScrnGd=T RCrit=4.00D+00 DoMicB=T.
 CutRad = 1000.00    CtRdIn =    0.00    XCrit =  15.00   ICut = 0
 Pruned (  99, 590) grid will be used in numerical quadrature.
 Pruned (  99, 590) grid will be used in numerical quadrature.
 IPart=  1 IRanGd=          0 ScrnBf=T ScrnGd=T RCrit=4.00D+00 DoMicB=T.
 CutRad = 1000.00    CtRdIn =    0.00    XCrit =  15.00   ICut = 0
 IPart= 14 IRanGd=          0 ScrnBf=T ScrnGd=T RCrit=4.00D+00 DoMicB=T.
 Pruned (  99, 590) grid will be used in numerical quadrature.
 Pruned (  99, 590) grid will be used in numerical quadrature.
 Pruned (  99, 590) grid will be used in numerical quadrature.
 IPart=  0 Atom number   1 atomic number  6 has       23114 grid points.
 Pruned (  99, 590) grid will be used in numerical quadrature.
 IPart= 15 IRanGd=          0 ScrnBf=T ScrnGd=T RCrit=4.00D+00 DoMicB=T.
 Pruned (  99, 590) grid will be used in numerical quadrature.
 Pruned (  99, 590) grid will be used in numerical quadrature.
 IPart=  0 Atom   1 batch    1 overlaps    9 atoms,   102 shells and     9 DB shells.   NGrid=      2408
 IPart=  3 IRanGd=          0 ScrnBf=T ScrnGd=T RCrit=4.00D+00 DoMicB=T.
 IPart= 12 IRanGd=          0 ScrnBf=T ScrnGd=T RCrit=4.00D+00 DoMicB=T.
 CutRad = 1000.00    CtRdIn =    0.00    XCrit =  15.00   ICut = 0
 CutRad = 1000.00    CtRdIn =    0.00    XCrit =  15.00   ICut = 0
 IPart= 11 IRanGd=          0 ScrnBf=T ScrnGd=T RCrit=4.00D+00 DoMicB=T.
 Pruned (  99, 590) grid will be used in numerical quadrature.
 Symmetry reduced    86 angular points to    86 for atom    1.
 Pruned (  99, 590) grid will be used in numerical quadrature.
 Pruned (  99, 590) grid will be used in numerical quadrature.
 CutRad = 1000.00    CtRdIn =    0.00    XCrit =  15.00   ICut = 0
 Pruned (  99, 590) grid will be used in numerical quadrature.
 Pruned (  99, 590) grid will be used in numerical quadrature.
 IPart= 13 IRanGd=          0 ScrnBf=T ScrnGd=T RCrit=4.00D+00 DoMicB=T.
 Pruned (  99, 590) grid will be used in numerical quadrature.
 IPart=  6 IRanGd=          0 ScrnBf=T ScrnGd=T RCrit=4.00D+00 DoMicB=T.
 Pruned (  99, 590) grid will be used in numerical quadrature.
 CutRad = 1000.00    CtRdIn =    0.00    XCrit =  15.00   ICut = 0
 IPart=  5 IRanGd=          0 ScrnBf=T ScrnGd=T RCrit=4.00D+00 DoMicB=T.
 CutRad = 1000.00    CtRdIn =    0.00    XCrit =  15.00   ICut = 0
 CutRad = 1000.00    CtRdIn =    0.00    XCrit =  15.00   ICut = 0
 IPart= 10 IRanGd=          0 ScrnBf=T ScrnGd=T RCrit=4.00D+00 DoMicB=T.
 CutRad = 1000.00    CtRdIn =    0.00    XCrit =  15.00   ICut = 0
 IPart=  2 IRanGd=          0 ScrnBf=T ScrnGd=T RCrit=4.00D+00 DoMicB=T.
 Pruned (  99, 590) grid will be used in numerical quadrature.
 IPart=  9 IRanGd=          0 ScrnBf=T ScrnGd=T RCrit=4.00D+00 DoMicB=T.
 CutRad = 1000.00    CtRdIn =    0.00    XCrit =  15.00   ICut = 0
 IPart=  7 IRanGd=          0 ScrnBf=T ScrnGd=T RCrit=4.00D+00 DoMicB=T.
 CutRad = 1000.00    CtRdIn =    0.00    XCrit =  15.00   ICut = 0
 CutRad = 1000.00    CtRdIn =    0.00    XCrit =  15.00   ICut = 0
 IPart=  8 IRanGd=          0 ScrnBf=T ScrnGd=T RCrit=4.00D+00 DoMicB=T.
 CutRad = 1000.00    CtRdIn =    0.00    XCrit =  15.00   ICut = 0
 CutRad = 1000.00    CtRdIn =    0.00    XCrit =  15.00   ICut = 0
 IPart=  4 IRanGd=          0 ScrnBf=T ScrnGd=T RCrit=4.00D+00 DoMicB=T.
 CutRad = 1000.00    CtRdIn =    0.00    XCrit =  15.00   ICut = 0
 CutRad = 1000.00    CtRdIn =    0.00    XCrit =  15.00   ICut = 0
 Pruned (  99, 590) grid will be used in numerical quadrature.
 IPart=  1 Atom number   1 atomic number  6 has       23114 grid points.
 IPart=  1 Atom   1 batch    2 overlaps    9 atoms,   104 shells and     9 DB shells.   NGrid=      2522
 Symmetry reduced   194 angular points to   194 for atom    1.
 Pruned (  99, 590) grid will be used in numerical quadrature.
 Pruned (  99, 590) grid will be used in numerical quadrature.
 IPart=  3 Atom number   1 atomic number  6 has       23114 grid points.
 IPart= 12 Atom number   1 atomic number  6 has       23114 grid points.
 IPart=  3 Atom   1 batch    3 overlaps    9 atoms,   105 shells and     9 DB shells.   NGrid=      2114
 IPart= 12 Atom   1 batch    4 overlaps    9 atoms,   106 shells and     9 DB shells.   NGrid=      1180
 Symmetry reduced   302 angular points to   302 for atom    1.
 Symmetry reduced   590 angular points to   590 for atom    1.
 Pruned (  99, 590) grid will be used in numerical quadrature.
 IPart= 11 Atom number   1 atomic number  6 has       23114 grid points.
 IPart= 11 Atom   1 batch    5 overlaps    9 atoms,   106 shells and     9 DB shells.   NGrid=      1180
 Symmetry reduced   590 angular points to   590 for atom    1.
 Pruned (  99, 590) grid will be used in numerical quadrature.
 IPart= 13 Atom number   1 atomic number  6 has       23114 grid points.
 Pruned (  99, 590) grid will be used in numerical quadrature.
 IPart= 13 Atom   1 batch    6 overlaps    9 atoms,   106 shells and     9 DB shells.   NGrid=      1180
 Pruned (  99, 590) grid will be used in numerical quadrature.
 Symmetry reduced   590 angular points to   590 for atom    1.
 IPart= 10 Atom number   1 atomic number  6 has       23114 grid points.
 Pruned (  99, 590) grid will be used in numerical quadrature.
 IPart= 10 Atom   1 batch    9 overlaps    9 atoms,   106 shells and     9 DB shells.   NGrid=      1180
 Pruned (  99, 590) grid will be used in numerical quadrature.
 Symmetry reduced   590 angular points to   590 for atom    1.
 IPart=  9 Atom number   1 atomic number  6 has       23114 grid points.
 IPart=  6 Atom number   1 atomic number  6 has       23114 grid points.
 IPart=  9 Atom   1 batch   10 overlaps    9 atoms,   106 shells and     9 DB shells.   NGrid=      1180
 Pruned (  99, 590) grid will be used in numerical quadrature.
 IPart= 14 Atom number   1 atomic number  6 has       23114 grid points.
 IPart= 15 Atom number   1 atomic number  6 has       23114 grid points.
 IPart=  6 Atom   1 batch    7 overlaps    9 atoms,   106 shells and     9 DB shells.   NGrid=      1180
 Pruned (  99, 590) grid will be used in numerical quadrature.
 Symmetry reduced   590 angular points to   590 for atom    1.
 IPart=  5 Atom number   1 atomic number  6 has       23114 grid points.
 IPart= 15 Atom   1 batch   11 overlaps    9 atoms,   105 shells and     9 DB shells.   NGrid=      1180
 IPart=  5 Atom   1 batch   12 overlaps    9 atoms,   105 shells and     9 DB shells.   NGrid=       590
 Pruned (  99, 590) grid will be used in numerical quadrature.
 Symmetry reduced   590 angular points to   590 for atom    1.
 IPart=  2 Atom number   1 atomic number  6 has       23114 grid points.
 Pruned (  99, 590) grid will be used in numerical quadrature.
 IPart=  2 Atom   1 batch   16 overlaps    9 atoms,    93 shells and     9 DB shells.   NGrid=       604
 IPart=  8 Atom number   1 atomic number  6 has       23114 grid points.
 Symmetry reduced   590 angular points to   590 for atom    1.
 Symmetry reduced   302 angular points to   302 for atom    1.
 IPart=  8 Atom   1 batch   13 overlaps    9 atoms,   105 shells and     9 DB shells.   NGrid=       604
 Symmetry reduced   590 angular points to   590 for atom    1.
 Symmetry reduced   302 angular points to   302 for atom    1.
 Pruned (  99, 590) grid will be used in numerical quadrature.
 Pruned (  99, 590) grid will be used in numerical quadrature.
 IPart= 14 Atom   1 batch    8 overlaps    9 atoms,   106 shells and     9 DB shells.   NGrid=      1180
 IPart=  7 Atom number   1 atomic number  6 has       23114 grid points.
 Symmetry reduced   590 angular points to   590 for atom    1.
 IPart=  7 Atom   1 batch   14 overlaps    9 atoms,   105 shells and     9 DB shells.   NGrid=       604
 IPart=  4 Atom number   1 atomic number  6 has       23114 grid points.
 Symmetry reduced   302 angular points to   302 for atom    1.
 IPart=  4 Atom   1 batch   15 overlaps    9 atoms,   100 shells and     9 DB shells.   NGrid=       604
 Symmetry reduced   302 angular points to   302 for atom    1.
 IPart=  2 Atom   1 batch   17 overlaps    9 atoms,    81 shells and     9 DB shells.   NGrid=       604
 IPart=  4 Atom   1 batch   18 overlaps    9 atoms,    63 shells and     9 DB shells.   NGrid=       604
 IPart=  7 Atom   1 batch   19 overlaps    9 atoms,    44 shells and     9 DB shells.   NGrid=       604
 IPart=  4 Atom   1 batch   20 overlaps    9 atoms,    29 shells and     5 DB shells.   NGrid=       604
 IPart=  5 Atom   1 batch   21 overlaps    9 atoms,    14 shells and     0 DB shells.   NGrid=       604
 Symmetry reduced   302 angular points to   302 for atom    1.
 IPart=  2 Atom   1 batch   22 overlaps    9 atoms,     5 shells and     0 DB shells.   NGrid=       604
 Pruned (  99, 590) grid will be used in numerical quadrature.
 IPart=  8 Atom number   2 atomic number  1 has       23466 grid points.
 IPart=  8 Atom   2 batch    1 overlaps    9 atoms,    96 shells and     9 DB shells.   NGrid=      2838
 Symmetry reduced    86 angular points to    86 for atom    2.
 Pruned (  99, 590) grid will be used in numerical quadrature.
 IPart=  4 Atom number   2 atomic number  1 has       23466 grid points.
 IPart=  4 Atom   2 batch    2 overlaps    9 atoms,    96 shells and     9 DB shells.   NGrid=      1552
 Symmetry reduced   194 angular points to   194 for atom    2.
 Pruned (  99, 590) grid will be used in numerical quadrature.
 IPart=  7 Atom number   2 atomic number  1 has       23466 grid points.
 IPart=  7 Atom   2 batch    3 overlaps    9 atoms,    98 shells and     9 DB shells.   NGrid=      2416
 Symmetry reduced   302 angular points to   302 for atom    2.
 Pruned (  99, 590) grid will be used in numerical quadrature.
 IPart=  5 Atom number   2 atomic number  1 has       23466 grid points.
 IPart=  5 Atom   2 batch    4 overlaps    9 atoms,   100 shells and     9 DB shells.   NGrid=      1180
 Symmetry reduced   590 angular points to   590 for atom    2.
 Pruned (  99, 590) grid will be used in numerical quadrature.
 IPart=  2 Atom number   2 atomic number  1 has       23466 grid points.
 IPart=  2 Atom   2 batch    5 overlaps    9 atoms,   101 shells and     9 DB shells.   NGrid=      1180
 Symmetry reduced   590 angular points to   590 for atom    2.
 Pruned (  99, 590) grid will be used in numerical quadrature.
 IPart= 15 Atom number   2 atomic number  1 has       23466 grid points.
 IPart= 15 Atom   2 batch    6 overlaps    9 atoms,   102 shells and     9 DB shells.   NGrid=      1180
 Symmetry reduced   590 angular points to   590 for atom    2.
 Pruned (  99, 590) grid will be used in numerical quadrature.
 IPart=  9 Atom number   2 atomic number  1 has       23466 grid points.
 IPart=  9 Atom   2 batch    7 overlaps    9 atoms,   102 shells and     9 DB shells.   NGrid=      1180
 Symmetry reduced   590 angular points to   590 for atom    2.
 Pruned (  99, 590) grid will be used in numerical quadrature.
 IPart= 13 Atom number   2 atomic number  1 has       23466 grid points.
 IPart= 13 Atom   2 batch    8 overlaps    9 atoms,   103 shells and     9 DB shells.   NGrid=      1180
 Pruned (  99, 590) grid will be used in numerical quadrature.
 Symmetry reduced   590 angular points to   590 for atom    2.
 IPart= 12 Atom number   2 atomic number  1 has       23466 grid points.
 IPart= 12 Atom   2 batch    9 overlaps    9 atoms,   104 shells and     9 DB shells.   NGrid=      1180
 Symmetry reduced   590 angular points to   590 for atom    2.
 Pruned (  99, 590) grid will be used in numerical quadrature.
 IPart= 11 Atom number   2 atomic number  1 has       23466 grid points.
 IPart= 11 Atom   2 batch   10 overlaps    9 atoms,   105 shells and     9 DB shells.   NGrid=      1180
 Symmetry reduced   590 angular points to   590 for atom    2.
 Pruned (  99, 590) grid will be used in numerical quadrature.
 IPart= 10 Atom number   2 atomic number  1 has       23466 grid points.
 IPart= 10 Atom   2 batch   11 overlaps    9 atoms,   106 shells and     9 DB shells.   NGrid=      1180
 Symmetry reduced   590 angular points to   590 for atom    2.
 Pruned (  99, 590) grid will be used in numerical quadrature.
 IPart= 14 Atom number   2 atomic number  1 has       23466 grid points.
 IPart= 14 Atom   2 batch   12 overlaps    9 atoms,   106 shells and     9 DB shells.   NGrid=      1180
 Symmetry reduced   590 angular points to   590 for atom    2.
 Pruned (  99, 590) grid will be used in numerical quadrature.
 IPart=  6 Atom number   2 atomic number  1 has       23466 grid points.
 IPart=  6 Atom   2 batch   13 overlaps    9 atoms,   106 shells and     9 DB shells.   NGrid=       604
 Symmetry reduced   302 angular points to   302 for atom    2.
 IPart=  2 Atom   2 batch   14 overlaps    9 atoms,   106 shells and     9 DB shells.   NGrid=       604
 Symmetry reduced   302 angular points to   302 for atom    2.
 IPart=  5 Atom   2 batch   15 overlaps    9 atoms,   102 shells and     9 DB shells.   NGrid=       604
 Symmetry reduced   302 angular points to   302 for atom    2.
 IPart=  6 Atom   2 batch   16 overlaps    9 atoms,    99 shells and     9 DB shells.   NGrid=       604
 IPart=  4 Atom   2 batch   17 overlaps    9 atoms,    91 shells and     9 DB shells.   NGrid=       604
 Symmetry reduced   302 angular points to   302 for atom    2.
 Pruned (  99, 590) grid will be used in numerical quadrature.
 IPart=  3 Atom number   2 atomic number  1 has       23466 grid points.
 IPart=  3 Atom   2 batch   18 overlaps    9 atoms,    71 shells and     9 DB shells.   NGrid=       604
 Symmetry reduced   302 angular points to   302 for atom    2.
 Pruned (  99, 590) grid will be used in numerical quadrature.
 IPart=  0 Atom number   2 atomic number  1 has       23466 grid points.
 IPart=  0 Atom   2 batch   19 overlaps    9 atoms,    48 shells and     9 DB shells.   NGrid=       604
 Symmetry reduced   302 angular points to   302 for atom    2.
 IPart=  4 Atom   2 batch   20 overlaps    9 atoms,    28 shells and     5 DB shells.   NGrid=       604
 IPart=  5 Atom   2 batch   21 overlaps    9 atoms,    14 shells and     0 DB shells.   NGrid=       604
 IPart= 15 Atom   2 batch   22 overlaps    9 atoms,     3 shells and     0 DB shells.   NGrid=       604
 Symmetry reduced   302 angular points to   302 for atom    2.
 Pruned (  99, 590) grid will be used in numerical quadrature.
 IPart=  4 Atom number   3 atomic number  6 has       23114 grid points.
 IPart=  4 Atom   3 batch    1 overlaps    9 atoms,   102 shells and     9 DB shells.   NGrid=      2408
 Symmetry reduced    86 angular points to    86 for atom    3.
 Pruned (  99, 590) grid will be used in numerical quadrature.
 IPart=  0 Atom number   3 atomic number  6 has       23114 grid points.
 IPart=  0 Atom   3 batch    2 overlaps    9 atoms,   105 shells and     9 DB shells.   NGrid=      2522
 Symmetry reduced   194 angular points to   194 for atom    3.
 Pruned (  99, 590) grid will be used in numerical quadrature.
 IPart=  3 Atom number   3 atomic number  6 has       23114 grid points.
 IPart=  3 Atom   3 batch    3 overlaps    9 atoms,   105 shells and     9 DB shells.   NGrid=      2114
 Symmetry reduced   302 angular points to   302 for atom    3.
 Pruned (  99, 590) grid will be used in numerical quadrature.
 IPart=  5 Atom number   3 atomic number  6 has       23114 grid points.
 IPart=  5 Atom   3 batch    4 overlaps    9 atoms,   106 shells and     9 DB shells.   NGrid=      1180
 Symmetry reduced   590 angular points to   590 for atom    3.
 Pruned (  99, 590) grid will be used in numerical quadrature.
 IPart= 12 Atom number   3 atomic number  6 has       23114 grid points.
 IPart= 12 Atom   3 batch    5 overlaps    9 atoms,   106 shells and     9 DB shells.   NGrid=      1180
 Symmetry reduced   590 angular points to   590 for atom    3.
 Pruned (  99, 590) grid will be used in numerical quadrature.
 IPart=  6 Atom number   3 atomic number  6 has       23114 grid points.
 IPart=  6 Atom   3 batch    6 overlaps    9 atoms,   106 shells and     9 DB shells.   NGrid=      1180
 Symmetry reduced   590 angular points to   590 for atom    3.
 Pruned (  99, 590) grid will be used in numerical quadrature.
 IPart=  2 Atom number   3 atomic number  6 has       23114 grid points.
 IPart=  2 Atom   3 batch    7 overlaps    9 atoms,   106 shells and     9 DB shells.   NGrid=      1180
 Symmetry reduced   590 angular points to   590 for atom    3.
 Pruned (  99, 590) grid will be used in numerical quadrature.
 IPart= 15 Atom number   3 atomic number  6 has       23114 grid points.
 IPart= 15 Atom   3 batch    8 overlaps    9 atoms,   106 shells and     9 DB shells.   NGrid=      1180
 Symmetry reduced   590 angular points to   590 for atom    3.
 Pruned (  99, 590) grid will be used in numerical quadrature.
 IPart= 11 Atom number   3 atomic number  6 has       23114 grid points.
 IPart= 11 Atom   3 batch    9 overlaps    9 atoms,   106 shells and     9 DB shells.   NGrid=      1180
 Symmetry reduced   590 angular points to   590 for atom    3.
 Pruned (  99, 590) grid will be used in numerical quadrature.
 IPart=  9 Atom number   3 atomic number  6 has       23114 grid points.
 IPart=  9 Atom   3 batch   10 overlaps    9 atoms,   106 shells and     9 DB shells.   NGrid=      1180
 Symmetry reduced   590 angular points to   590 for atom    3.
 Pruned (  99, 590) grid will be used in numerical quadrature.
 IPart= 13 Atom number   3 atomic number  6 has       23114 grid points.
 IPart= 13 Atom   3 batch   11 overlaps    9 atoms,   105 shells and     9 DB shells.   NGrid=      1180
 Symmetry reduced   590 angular points to   590 for atom    3.
 Pruned (  99, 590) grid will be used in numerical quadrature.
 IPart= 10 Atom number   3 atomic number  6 has       23114 grid points.
 IPart= 10 Atom   3 batch   12 overlaps    9 atoms,   105 shells and     9 DB shells.   NGrid=       590
 Symmetry reduced   590 angular points to   590 for atom    3.
 Pruned (  99, 590) grid will be used in numerical quadrature.
 IPart= 14 Atom number   3 atomic number  6 has       23114 grid points.
 IPart= 14 Atom   3 batch   13 overlaps    9 atoms,   105 shells and     9 DB shells.   NGrid=       604
 Symmetry reduced   302 angular points to   302 for atom    3.
 Pruned (  99, 590) grid will be used in numerical quadrature.
 IPart=  1 Atom number   2 atomic number  1 has       23466 grid points.
 Pruned (  99, 590) grid will be used in numerical quadrature.
 IPart=  1 Atom number   3 atomic number  6 has       23114 grid points.
 IPart=  1 Atom   3 batch   14 overlaps    9 atoms,   105 shells and     9 DB shells.   NGrid=       604
 Symmetry reduced   302 angular points to   302 for atom    3.
 Pruned (  99, 590) grid will be used in numerical quadrature.
 IPart=  8 Atom number   3 atomic number  6 has       23114 grid points.
 IPart=  8 Atom   3 batch   15 overlaps    9 atoms,   100 shells and     9 DB shells.   NGrid=       604
 Symmetry reduced   302 angular points to   302 for atom    3.
 Pruned (  99, 590) grid will be used in numerical quadrature.
 IPart=  7 Atom number   3 atomic number  6 has       23114 grid points.
 IPart=  7 Atom   3 batch   16 overlaps    9 atoms,    93 shells and     9 DB shells.   NGrid=       604
 Symmetry reduced   302 angular points to   302 for atom    3.
 IPart=  1 Atom   3 batch   17 overlaps    9 atoms,    82 shells and     9 DB shells.   NGrid=       604
 IPart= 10 Atom   3 batch   18 overlaps    9 atoms,    64 shells and     9 DB shells.   NGrid=       604
 Symmetry reduced   302 angular points to   302 for atom    3.
 IPart= 14 Atom   3 batch   19 overlaps    9 atoms,    45 shells and     9 DB shells.   NGrid=       604
 IPart=  7 Atom   3 batch   20 overlaps    9 atoms,    29 shells and     5 DB shells.   NGrid=       604
 IPart= 14 Atom   3 batch   21 overlaps    9 atoms,    14 shells and     0 DB shells.   NGrid=       604
 IPart=  8 Atom   3 batch   22 overlaps    9 atoms,     5 shells and     0 DB shells.   NGrid=       604
 Pruned (  99, 590) grid will be used in numerical quadrature.
 IPart=  7 Atom number   4 atomic number  1 has       23466 grid points.
 IPart=  7 Atom   4 batch    1 overlaps    9 atoms,    93 shells and     9 DB shells.   NGrid=      2838
 Symmetry reduced    86 angular points to    86 for atom    4.
 Pruned (  99, 590) grid will be used in numerical quadrature.
 IPart= 10 Atom number   4 atomic number  1 has       23466 grid points.
 IPart= 10 Atom   4 batch    2 overlaps    9 atoms,    93 shells and     9 DB shells.   NGrid=      1552
 Pruned (  99, 590) grid will be used in numerical quadrature.
 Symmetry reduced   194 angular points to   194 for atom    4.
 IPart= 14 Atom number   4 atomic number  1 has       23466 grid points.
 IPart= 14 Atom   4 batch    3 overlaps    9 atoms,    96 shells and     9 DB shells.   NGrid=      2416
 Symmetry reduced   302 angular points to   302 for atom    4.
 Pruned (  99, 590) grid will be used in numerical quadrature.
 IPart=  8 Atom number   4 atomic number  1 has       23466 grid points.
 IPart=  8 Atom   4 batch    4 overlaps    9 atoms,    98 shells and     9 DB shells.   NGrid=      1180
 Symmetry reduced   590 angular points to   590 for atom    4.
 Pruned (  99, 590) grid will be used in numerical quadrature.
 IPart=  1 Atom number   4 atomic number  1 has       23466 grid points.
 IPart=  1 Atom   4 batch    5 overlaps    9 atoms,    98 shells and     9 DB shells.   NGrid=      1180
 Symmetry reduced   590 angular points to   590 for atom    4.
 Pruned (  99, 590) grid will be used in numerical quadrature.
 IPart= 13 Atom number   4 atomic number  1 has       23466 grid points.
 IPart= 13 Atom   4 batch    6 overlaps    9 atoms,   100 shells and     9 DB shells.   NGrid=      1180
 Symmetry reduced   590 angular points to   590 for atom    4.
 Pruned (  99, 590) grid will be used in numerical quadrature.
 IPart=  9 Atom number   4 atomic number  1 has       23466 grid points.
 IPart=  9 Atom   4 batch    7 overlaps    9 atoms,   100 shells and     9 DB shells.   NGrid=      1180
 Symmetry reduced   590 angular points to   590 for atom    4.
 Pruned (  99, 590) grid will be used in numerical quadrature.
 IPart=  5 Atom number   4 atomic number  1 has       23466 grid points.
 IPart=  5 Atom   4 batch    8 overlaps    9 atoms,   102 shells and     9 DB shells.   NGrid=      1180
 Symmetry reduced   590 angular points to   590 for atom    4.
 Pruned (  99, 590) grid will be used in numerical quadrature.
 IPart= 12 Atom number   4 atomic number  1 has       23466 grid points.
 IPart= 12 Atom   4 batch    9 overlaps    9 atoms,   105 shells and     9 DB shells.   NGrid=      1180
 Symmetry reduced   590 angular points to   590 for atom    4.
 Pruned (  99, 590) grid will be used in numerical quadrature.
 Pruned (  99, 590) grid will be used in numerical quadrature.
 IPart=  2 Atom number   4 atomic number  1 has       23466 grid points.
 IPart=  6 Atom number   4 atomic number  1 has       23466 grid points.
 IPart=  2 Atom   4 batch   10 overlaps    9 atoms,   105 shells and     9 DB shells.   NGrid=      1180
 IPart=  6 Atom   4 batch   11 overlaps    9 atoms,   106 shells and     9 DB shells.   NGrid=      1180
 Symmetry reduced   590 angular points to   590 for atom    4.
 Symmetry reduced   590 angular points to   590 for atom    4.
 Pruned (  99, 590) grid will be used in numerical quadrature.
 IPart= 11 Atom number   4 atomic number  1 has       23466 grid points.
 IPart= 11 Atom   4 batch   12 overlaps    9 atoms,   106 shells and     9 DB shells.   NGrid=      1180
 Symmetry reduced   590 angular points to   590 for atom    4.
 Pruned (  99, 590) grid will be used in numerical quadrature.
 IPart= 15 Atom number   4 atomic number  1 has       23466 grid points.
 IPart= 15 Atom   4 batch   13 overlaps    9 atoms,   106 shells and     9 DB shells.   NGrid=       604
 Symmetry reduced   302 angular points to   302 for atom    4.
 IPart=  8 Atom   4 batch   14 overlaps    9 atoms,   106 shells and     9 DB shells.   NGrid=       604
 Symmetry reduced   302 angular points to   302 for atom    4.
 IPart= 15 Atom   4 batch   15 overlaps    9 atoms,   102 shells and     9 DB shells.   NGrid=       604
 IPart=  1 Atom   4 batch   16 overlaps    9 atoms,    99 shells and     9 DB shells.   NGrid=       604
 Symmetry reduced   302 angular points to   302 for atom    4.
 IPart= 10 Atom   4 batch   17 overlaps    9 atoms,    91 shells and     9 DB shells.   NGrid=       604
 Symmetry reduced   302 angular points to   302 for atom    4.
 Pruned (  99, 590) grid will be used in numerical quadrature.
 IPart=  3 Atom number   4 atomic number  1 has       23466 grid points.
 IPart=  3 Atom   4 batch   18 overlaps    9 atoms,    72 shells and     9 DB shells.   NGrid=       604
 Symmetry reduced   302 angular points to   302 for atom    4.
 Pruned (  99, 590) grid will be used in numerical quadrature.
 IPart=  4 Atom number   4 atomic number  1 has       23466 grid points.
 IPart=  4 Atom   4 batch   19 overlaps    9 atoms,    50 shells and     9 DB shells.   NGrid=       604
 Symmetry reduced   302 angular points to   302 for atom    4.
 IPart=  3 Atom   4 batch   20 overlaps    9 atoms,    28 shells and     5 DB shells.   NGrid=       604
 IPart=  4 Atom   4 batch   21 overlaps    9 atoms,    14 shells and     0 DB shells.   NGrid=       604
 IPart= 13 Atom   4 batch   22 overlaps    9 atoms,     3 shells and     0 DB shells.   NGrid=       604
 Symmetry reduced   302 angular points to   302 for atom    4.
 Pruned (  99, 590) grid will be used in numerical quadrature.
 IPart=  9 Atom number   5 atomic number  7 has       23416 grid points.
 IPart=  9 Atom   5 batch    1 overlaps    9 atoms,   101 shells and     9 DB shells.   NGrid=      2408
 Symmetry reduced    86 angular points to    86 for atom    5.
 Pruned (  99, 590) grid will be used in numerical quadrature.
 IPart=  3 Atom number   5 atomic number  7 has       23416 grid points.
 IPart=  3 Atom   5 batch    2 overlaps    9 atoms,   103 shells and     9 DB shells.   NGrid=      2522
 Symmetry reduced   194 angular points to   194 for atom    5.
 Pruned (  99, 590) grid will be used in numerical quadrature.
 Pruned (  99, 590) grid will be used in numerical quadrature.
 IPart= 11 Atom number   5 atomic number  7 has       23416 grid points.
 IPart=  4 Atom number   5 atomic number  7 has       23416 grid points.
 IPart= 11 Atom   5 batch    3 overlaps    9 atoms,   105 shells and     9 DB shells.   NGrid=      2114
 IPart=  4 Atom   5 batch    4 overlaps    9 atoms,   105 shells and     9 DB shells.   NGrid=      1180
 Symmetry reduced   302 angular points to   302 for atom    5.
 Symmetry reduced   590 angular points to   590 for atom    5.
 Pruned (  99, 590) grid will be used in numerical quadrature.
 IPart= 10 Atom number   5 atomic number  7 has       23416 grid points.
 Pruned (  99, 590) grid will be used in numerical quadrature.
 Pruned (  99, 590) grid will be used in numerical quadrature.
 IPart= 12 Atom number   5 atomic number  7 has       23416 grid points.
 IPart= 15 Atom number   5 atomic number  7 has       23416 grid points.
 IPart= 12 Atom   5 batch    6 overlaps    9 atoms,   106 shells and     9 DB shells.   NGrid=      1180
 IPart= 15 Atom   5 batch    7 overlaps    9 atoms,   106 shells and     9 DB shells.   NGrid=      1180
 Symmetry reduced   590 angular points to   590 for atom    5.
 IPart= 10 Atom   5 batch    5 overlaps    9 atoms,   106 shells and     9 DB shells.   NGrid=      1180
 Symmetry reduced   590 angular points to   590 for atom    5.
 Symmetry reduced   590 angular points to   590 for atom    5.
 Pruned (  99, 590) grid will be used in numerical quadrature.
 IPart= 13 Atom number   5 atomic number  7 has       23416 grid points.
 IPart= 13 Atom   5 batch    8 overlaps    9 atoms,   106 shells and     9 DB shells.   NGrid=      1180
 Symmetry reduced   590 angular points to   590 for atom    5.
 Pruned (  99, 590) grid will be used in numerical quadrature.
 IPart=  0 Atom number   4 atomic number  1 has       23466 grid points.
 Pruned (  99, 590) grid will be used in numerical quadrature.
 IPart=  0 Atom number   5 atomic number  7 has       23416 grid points.
 IPart=  0 Atom   5 batch    9 overlaps    9 atoms,   106 shells and     9 DB shells.   NGrid=      1180
 Symmetry reduced   590 angular points to   590 for atom    5.
 Pruned (  99, 590) grid will be used in numerical quadrature.
 IPart=  5 Atom number   5 atomic number  7 has       23416 grid points.
 IPart=  5 Atom   5 batch   10 overlaps    9 atoms,   106 shells and     9 DB shells.   NGrid=      1180
[...]
 2841 Fit      -0.006583
 2842 Fit      -0.004008
 2843 Fit      -0.002009
 2844 Fit      -0.000466
 2845 Fit       0.000712
 2846 Fit       0.001605
 2847 Fit       0.002295
 2848 Fit       0.002877
 2849 Fit       0.003470
 2850 Fit       0.004588
 2851 Fit      -0.017991
 2852 Fit      -0.012763
 2853 Fit      -0.008806
 2854 Fit      -0.005750
 2855 Fit      -0.003367
 2856 Fit      -0.001508
 2857 Fit      -0.000066
 2858 Fit       0.001041
 2859 Fit       0.001890
 2860 Fit       0.002559
 2861 Fit       0.003142
 2862 Fit       0.003761
 2863 Fit       0.004244
 2864 Fit      -0.014242
 2865 Fit      -0.009905
 2866 Fit      -0.006583
 2867 Fit      -0.004008
 2868 Fit      -0.002009
 2869 Fit      -0.000466
 2870 Fit       0.000712
 2871 Fit       0.001605
 2872 Fit       0.002295
 2873 Fit       0.002877
 2874 Fit       0.003470
 2875 Fit       0.003237
 2876 Fit      -0.017649
 2877 Fit      -0.012482
 2878 Fit      -0.008575
 2879 Fit      -0.005578
 2880 Fit      -0.003270
 2881 Fit      -0.001503
 2882 Fit      -0.000170
 2883 Fit       0.000820
 2884 Fit       0.001553
 2885 Fit       0.002120
 2886 Fit       0.002633
 2887 Fit       0.001634
 2888 Fit      -0.015482
 2889 Fit      -0.011020
 2890 Fit      -0.007602
 2891 Fit      -0.004976
 2892 Fit      -0.002974
 2893 Fit      -0.001474
 2894 Fit      -0.000381
 2895 Fit       0.000389
 2896 Fit       0.000922
 2897 Fit       0.001305
 2898 Fit      -0.000467
 2899 Fit      -0.012087
 2900 Fit      -0.008492
 2901 Fit      -0.005770
 2902 Fit      -0.003752
 2903 Fit      -0.002310
 2904 Fit      -0.001341
 2905 Fit      -0.000757
 2906 Fit      -0.000482
 2907 Fit      -0.009583
 2908 Fit      -0.006833
 2909 Fit      -0.004869
 2910 Fit      -0.003572
 2911 Fit      -0.002852
 2912 Fit      -0.002646
 2913 Fit      -0.008694
 2914 Fit      -0.006627
 2915 Fit      -0.005465
 2916 Fit      -0.018757
 2917 Fit      -0.018352
 2918 Fit      -0.016768
 2919 Fit      -0.017030
 2920 Fit      -0.019176
 2921 Fit      -0.020690
 2922 Fit      -0.020070
 2923 Fit      -0.014735
 2924 Fit      -0.016931
 2925 Fit      -0.019482
 2926 Fit      -0.021622
 2927 Fit      -0.022565
 2928 Fit      -0.022157
 2929 Fit      -0.020916
 2930 Fit      -0.019570
 2931 Fit      -0.022054
 2932 Fit      -0.023748
 2933 Fit      -0.024373
 2934 Fit      -0.023936
 2935 Fit      -0.022729
 2936 Fit      -0.021240
 2937 Fit      -0.017793
 2938 Fit      -0.020872
 2939 Fit      -0.023478
 2940 Fit      -0.025272
 2941 Fit      -0.026066
 2942 Fit      -0.025840
 2943 Fit      -0.024741
 2944 Fit      -0.023074
 2945 Fit      -0.020471
 2946 Fit      -0.023413
 2947 Fit      -0.025697
 2948 Fit      -0.027161
 2949 Fit      -0.027731
 2950 Fit      -0.027417
 2951 Fit      -0.026312
 2952 Fit      -0.024591
 2953 Fit      -0.022518
 2954 Fit      -0.019862
 2955 Fit      -0.023281
 2956 Fit      -0.026028
 2957 Fit      -0.027971
 2958 Fit      -0.029037
 2959 Fit      -0.029207
 2960 Fit      -0.028518
 2961 Fit      -0.027058
 2962 Fit      -0.024972
 2963 Fit      -0.022471
 2964 Fit      -0.018982
 2965 Fit      -0.022848
 2966 Fit      -0.026010
 2967 Fit      -0.028381
 2968 Fit      -0.029905
 2969 Fit      -0.030561
 2970 Fit      -0.030359
 2971 Fit      -0.029339
 2972 Fit      -0.027576
 2973 Fit      -0.025175
 2974 Fit      -0.022283
 2975 Fit      -0.020254
 2976 Fit      -0.024210
 2977 Fit      -0.027361
 2978 Fit      -0.029671
 2979 Fit      -0.031122
 2980 Fit      -0.031708
 2981 Fit      -0.031443
 2982 Fit      -0.030361
 2983 Fit      -0.028513
 2984 Fit      -0.025969
 2985 Fit      -0.022811
 2986 Fit      -0.016967
 2987 Fit      -0.021683
 2988 Fit      -0.025545
 2989 Fit      -0.028567
 2990 Fit      -0.030749
 2991 Fit      -0.032092
 2992 Fit      -0.032602
 2993 Fit      -0.032293
 2994 Fit      -0.031193
 2995 Fit      -0.029336
 2996 Fit      -0.026764
 2997 Fit      -0.023513
 2998 Fit      -0.016149
 2999 Fit      -0.021165
 3000 Fit      -0.025255
 3001 Fit      -0.028479
 3002 Fit      -0.030863
 3003 Fit      -0.032416
 3004 Fit      -0.033150
 3005 Fit      -0.033077
 3006 Fit      -0.032219
 3007 Fit      -0.030600
 3008 Fit      -0.028246
 3009 Fit      -0.025176
 3010 Fit      -0.021375
 3011 Fit      -0.015755
 3012 Fit      -0.021031
 3013 Fit      -0.025297
 3014 Fit      -0.028643
 3015 Fit      -0.031107
 3016 Fit      -0.032708
 3017 Fit      -0.033460
 3018 Fit      -0.033378
 3019 Fit      -0.032482
 3020 Fit      -0.030796
 3021 Fit      -0.028340
 3022 Fit      -0.025121
 3023 Fit      -0.021101
 3024 Fit      -0.015755
 3025 Fit      -0.021031
 3026 Fit      -0.025297
 3027 Fit      -0.028643
 3028 Fit      -0.031107
 3029 Fit      -0.032708
 3030 Fit      -0.033460
 3031 Fit      -0.033378
 3032 Fit      -0.032482
 3033 Fit      -0.030796
 3034 Fit      -0.028340
 3035 Fit      -0.025121
 3036 Fit      -0.021101
 3037 Fit      -0.016149
 3038 Fit      -0.021165
 3039 Fit      -0.025255
 3040 Fit      -0.028479
 3041 Fit      -0.030863
 3042 Fit      -0.032416
 3043 Fit      -0.033150
 3044 Fit      -0.033077
 3045 Fit      -0.032219
 3046 Fit      -0.030600
 3047 Fit      -0.028246
 3048 Fit      -0.025176
 3049 Fit      -0.021375
 3050 Fit      -0.016967
 3051 Fit      -0.021683
 3052 Fit      -0.025545
 3053 Fit      -0.028567
 3054 Fit      -0.030749
 3055 Fit      -0.032092
 3056 Fit      -0.032602
 3057 Fit      -0.032293
 3058 Fit      -0.031193
 3059 Fit      -0.029336
 3060 Fit      -0.026764
 3061 Fit      -0.023513
 3062 Fit      -0.020254
 3063 Fit      -0.024210
 3064 Fit      -0.027361
 3065 Fit      -0.029671
 3066 Fit      -0.031122
 3067 Fit      -0.031708
 3068 Fit      -0.031443
 3069 Fit      -0.030361
 3070 Fit      -0.028513
 3071 Fit      -0.025969
 3072 Fit      -0.022811
 3073 Fit      -0.018982
 3074 Fit      -0.022848
 3075 Fit      -0.026010
 3076 Fit      -0.028381
 3077 Fit      -0.029905
 3078 Fit      -0.030561
 3079 Fit      -0.030359
 3080 Fit      -0.029339
 3081 Fit      -0.027576
 3082 Fit      -0.025175
 3083 Fit      -0.022283
 3084 Fit      -0.019862
 3085 Fit      -0.023281
 3086 Fit      -0.026028
 3087 Fit      -0.027971
 3088 Fit      -0.029037
 3089 Fit      -0.029207
 3090 Fit      -0.028518
 3091 Fit      -0.027058
 3092 Fit      -0.024972
 3093 Fit      -0.022471
 3094 Fit      -0.020471
 3095 Fit      -0.023413
 3096 Fit      -0.025697
 3097 Fit      -0.027161
 3098 Fit      -0.027731
 3099 Fit      -0.027417
 3100 Fit      -0.026312
 3101 Fit      -0.024591
 3102 Fit      -0.022518
 3103 Fit      -0.017793
 3104 Fit      -0.020872
 3105 Fit      -0.023478
 3106 Fit      -0.025272
 3107 Fit      -0.026066
 3108 Fit      -0.025840
 3109 Fit      -0.024741
 3110 Fit      -0.023074
 3111 Fit      -0.019570
 3112 Fit      -0.022054
 3113 Fit      -0.023748
 3114 Fit      -0.024373
 3115 Fit      -0.023936
 3116 Fit      -0.022729
 3117 Fit      -0.021240
 3118 Fit      -0.014735
 3119 Fit      -0.016931
 3120 Fit      -0.019482
 3121 Fit      -0.021622
 3122 Fit      -0.022565
 3123 Fit      -0.022157
 3124 Fit      -0.020916
 3125 Fit      -0.018352
 3126 Fit      -0.016768
 3127 Fit      -0.017030
 3128 Fit      -0.019176
 3129 Fit      -0.020690
 3130 Fit      -0.020070
 3131 Fit      -0.018757
 3132 Fit      -0.009165
 3133 Fit      -0.009519
 3134 Fit      -0.006342
 3135 Fit      -0.005912
 3136 Fit      -0.008679
 3137 Fit      -0.012155
 3138 Fit      -0.012528
 3139 Fit      -0.009875
 3140 Fit      -0.002243
 3141 Fit      -0.002671
 3142 Fit      -0.004691
 3143 Fit      -0.007977
 3144 Fit      -0.011931
 3145 Fit      -0.015401
 3146 Fit      -0.013402
 3147 Fit       0.001413
 3148 Fit       0.000644
 3149 Fit      -0.001070
 3150 Fit      -0.003635
 3151 Fit      -0.007005
 3152 Fit      -0.011018
 3153 Fit      -0.015254
 3154 Fit       0.004883
 3155 Fit       0.003587
 3156 Fit       0.001717
 3157 Fit      -0.000746
 3158 Fit      -0.003889
 3159 Fit      -0.007743
 3160 Fit      -0.012207
 3161 Fit      -0.016993
 3162 Fit       0.008622
 3163 Fit       0.007135
 3164 Fit       0.005394
 3165 Fit       0.003330
 3166 Fit       0.000796
 3167 Fit      -0.002336
 3168 Fit      -0.006119
 3169 Fit      -0.010524
 3170 Fit      -0.015442
 3171 Fit       0.013135
 3172 Fit       0.011306
 3173 Fit       0.009508
 3174 Fit      -0.004343
 3175 Fit      -0.008974
 3176 Fit      -0.014229
 3177 Fit       0.015617
 3178 Fit      -0.007121
 3179 Fit      -0.012564
 3180 Fit       0.019081
 3181 Fit      -0.014106
 3182 Fit      -0.014658
 3183 Fit      -0.014594
 3184 Fit      -0.014594
 3185 Fit      -0.014658
 3186 Fit       0.019081
 3187 Fit      -0.014106
 3188 Fit       0.015617
 3189 Fit      -0.007121
 3190 Fit      -0.012564
 3191 Fit       0.013135
 3192 Fit       0.011306
 3193 Fit       0.009508
 3194 Fit      -0.004343
 3195 Fit      -0.008974
 3196 Fit      -0.014229
 3197 Fit       0.008622
 3198 Fit       0.007135
 3199 Fit       0.005394
 3200 Fit       0.003330
 3201 Fit       0.000796
 3202 Fit      -0.002336
 3203 Fit      -0.006119
 3204 Fit      -0.010524
 3205 Fit      -0.015442
 3206 Fit       0.004883
 3207 Fit       0.003587
 3208 Fit       0.001717
 3209 Fit      -0.000746
 3210 Fit      -0.003889
 3211 Fit      -0.007743
 3212 Fit      -0.012207
 3213 Fit      -0.016993
 3214 Fit       0.001413
 3215 Fit       0.000644
 3216 Fit      -0.001070
 3217 Fit      -0.003635
 3218 Fit      -0.007005
 3219 Fit      -0.011018
 3220 Fit      -0.015254
 3221 Fit      -0.009875
 3222 Fit      -0.002243
 3223 Fit      -0.002671
 3224 Fit      -0.004691
 3225 Fit      -0.007977
 3226 Fit      -0.011931
 3227 Fit      -0.015401
 3228 Fit      -0.013402
 3229 Fit      -0.009519
 3230 Fit      -0.006342
 3231 Fit      -0.005912
 3232 Fit      -0.008679
 3233 Fit      -0.012155
 3234 Fit      -0.012528
 3235 Fit      -0.009165
 3236 Fit       0.006132
 3237 Fit       0.003860
 3238 Fit       0.000914
 3239 Fit       0.011911
 3240 Fit       0.010236
 3241 Fit       0.008400
 3242 Fit       0.006301
 3243 Fit       0.003789
 3244 Fit       0.000702
 3245 Fit      -0.003141
 3246 Fit       0.015360
 3247 Fit       0.013286
 3248 Fit       0.011370
 3249 Fit       0.009447
 3250 Fit       0.007349
 3251 Fit       0.004921
 3252 Fit       0.002001
 3253 Fit      -0.001590
 3254 Fit      -0.006076
 3255 Fit       0.018518
 3256 Fit       0.015977
 3257 Fit       0.013881
 3258 Fit       0.011989
 3259 Fit       0.010112
 3260 Fit       0.008093
 3261 Fit       0.005793
 3262 Fit       0.003074
 3263 Fit      -0.000221
 3264 Fit      -0.004297
 3265 Fit      -0.009442
 3266 Fit       0.022891
 3267 Fit       0.019309
 3268 Fit       0.016656
 3269 Fit       0.014517
 3270 Fit       0.012611
 3271 Fit       0.010735
 3272 Fit       0.008732
 3273 Fit       0.006467
 3274 Fit       0.003804
 3275 Fit       0.000589
 3276 Fit      -0.003383
 3277 Fit      -0.008413
 3278 Fit       0.022653
 3279 Fit       0.019262
 3280 Fit       0.016739
 3281 Fit       0.014682
 3282 Fit       0.012830
 3283 Fit       0.011000
 3284 Fit       0.009047
 3285 Fit       0.006848
 3286 Fit       0.004280
 3287 Fit       0.001200
 3288 Fit      -0.002581
 3289 Fit      -0.007339
 3290 Fit       0.024391
 3291 Fit       0.020563
 3292 Fit       0.017798
 3293 Fit       0.015624
 3294 Fit       0.013744
 3295 Fit       0.011956
 3296 Fit       0.010110
 3297 Fit       0.008083
 3298 Fit       0.005760
 3299 Fit       0.003019
 3300 Fit      -0.000292
 3301 Fit      -0.004388
 3302 Fit      -0.009591
 3303 Fit       0.022653
 3304 Fit       0.019262
 3305 Fit       0.016739
 3306 Fit       0.014682
 3307 Fit       0.012830
 3308 Fit       0.011000
 3309 Fit       0.009047
 3310 Fit       0.006848
 3311 Fit       0.004280
 3312 Fit       0.001200
 3313 Fit      -0.002581
 3314 Fit      -0.007339
 3315 Fit       0.022891
 3316 Fit       0.019309
 3317 Fit       0.016656
 3318 Fit       0.014517
 3319 Fit       0.012611
 3320 Fit       0.010735
 3321 Fit       0.008732
 3322 Fit       0.006467
 3323 Fit       0.003804
 3324 Fit       0.000589
 3325 Fit      -0.003383
 3326 Fit      -0.008413
 3327 Fit       0.018518
 3328 Fit       0.015977
 3329 Fit       0.013881
 3330 Fit       0.011989
 3331 Fit       0.010112
 3332 Fit       0.008093
 3333 Fit       0.005793
 3334 Fit       0.003074
 3335 Fit      -0.000221
 3336 Fit      -0.004297
 3337 Fit      -0.009442
 3338 Fit       0.015360
 3339 Fit       0.013286
 3340 Fit       0.011370
 3341 Fit       0.009447
 3342 Fit       0.007349
 3343 Fit       0.004921
 3344 Fit       0.002001
 3345 Fit      -0.001590
 3346 Fit      -0.006076
 3347 Fit       0.011911
 3348 Fit       0.010236
 3349 Fit       0.008400
 3350 Fit       0.006301
 3351 Fit       0.003789
 3352 Fit       0.000702
 3353 Fit      -0.003141
 3354 Fit       0.006132
 3355 Fit       0.003860
 3356 Fit       0.000914
 3357 Fit      -0.002470
 3358 Fit      -0.002297
 3359 Fit       0.000643
 3360 Fit       0.000537
 3361 Fit      -0.002526
 3362 Fit      -0.005576
 3363 Fit      -0.005439
 3364 Fit      -0.001979
 3365 Fit       0.001502
 3366 Fit       0.003897
 3367 Fit       0.004691
 3368 Fit       0.003700
 3369 Fit       0.001149
 3370 Fit      -0.002426
 3371 Fit      -0.009693
 3372 Fit       0.002242
 3373 Fit       0.005233
 3374 Fit       0.007363
 3375 Fit       0.008454
 3376 Fit       0.008362
 3377 Fit       0.007092
 3378 Fit       0.004803
 3379 Fit       0.001689
 3380 Fit       0.006731
 3381 Fit       0.009371
 3382 Fit       0.011333
 3383 Fit       0.012477
 3384 Fit       0.012650
 3385 Fit       0.011811
 3386 Fit       0.010069
 3387 Fit       0.007595
 3388 Fit       0.011007
 3389 Fit       0.013332
 3390 Fit       0.015224
 3391 Fit       0.016543
 3392 Fit       0.017115
 3393 Fit       0.016836
 3394 Fit       0.015733
 3395 Fit       0.013952
 3396 Fit       0.011668
 3397 Fit       0.015767
 3398 Fit       0.017942
 3399 Fit       0.019809
 3400 Fit       0.020385
 3401 Fit       0.018613
 3402 Fit       0.016402
 3403 Fit       0.013934
 3404 Fit       0.018221
 3405 Fit       0.020369
 3406 Fit       0.022504
 3407 Fit       0.021080
 3408 Fit       0.018716
 3409 Fit       0.022819
 3410 Fit       0.022299
 3411 Fit       0.024922
 3412 Fit       0.025378
 3413 Fit       0.026900
 3414 Fit       0.027992
 3415 Fit       0.027992
 3416 Fit       0.026900
 3417 Fit       0.024922
 3418 Fit       0.025378
 3419 Fit       0.022819
 3420 Fit       0.022299
 3421 Fit       0.018221
 3422 Fit       0.020369
 3423 Fit       0.022504
 3424 Fit       0.021080
 3425 Fit       0.018716
 3426 Fit       0.015767
 3427 Fit       0.017942
 3428 Fit       0.019809
 3429 Fit       0.020385
 3430 Fit       0.018613
 3431 Fit       0.016402
 3432 Fit       0.013934
 3433 Fit       0.011007
 3434 Fit       0.013332
 3435 Fit       0.015224
 3436 Fit       0.016543
 3437 Fit       0.017115
 3438 Fit       0.016836
 3439 Fit       0.015733
 3440 Fit       0.013952
 3441 Fit       0.011668
 3442 Fit       0.006731
 3443 Fit       0.009371
 3444 Fit       0.011333
 3445 Fit       0.012477
 3446 Fit       0.012650
 3447 Fit       0.011811
 3448 Fit       0.010069
 3449 Fit       0.007595
 3450 Fit       0.002242
 3451 Fit       0.005233
 3452 Fit       0.007363
 3453 Fit       0.008454
 3454 Fit       0.008362
 3455 Fit       0.007092
 3456 Fit       0.004803
 3457 Fit       0.001689
 3458 Fit      -0.001979
 3459 Fit       0.001502
 3460 Fit       0.003897
 3461 Fit       0.004691
 3462 Fit       0.003700
 3463 Fit       0.001149
 3464 Fit      -0.002426
 3465 Fit      -0.009693
 3466 Fit      -0.002297
 3467 Fit       0.000643
 3468 Fit       0.000537
 3469 Fit      -0.002526
 3470 Fit      -0.005576
 3471 Fit      -0.005439
 3472 Fit      -0.002470
 3473 Fit       0.021198
 3474 Fit       0.021124
 3475 Fit       0.022319
 3476 Fit       0.023402
 3477 Fit       0.023964
 3478 Fit       0.024022
 3479 Fit       0.023577
 3480 Fit       0.022625
 3481 Fit       0.024138
 3482 Fit       0.025167
 3483 Fit       0.025872
 3484 Fit       0.026242
 3485 Fit       0.026266
 3486 Fit       0.025940
 3487 Fit       0.025272
 3488 Fit       0.024276
 3489 Fit       0.025821
 3490 Fit       0.026604
 3491 Fit       0.027259
 3492 Fit       0.027730
 3493 Fit       0.027979
 3494 Fit       0.027983
 3495 Fit       0.027737
 3496 Fit       0.027253
 3497 Fit       0.026559
 3498 Fit       0.025704
 3499 Fit       0.027400
 3500 Fit       0.027878
 3501 Fit       0.028395
 3502 Fit       0.028833
 3503 Fit       0.029122
 3504 Fit       0.029221
 3505 Fit       0.029112
 3506 Fit       0.028800
 3507 Fit       0.028309
 3508 Fit       0.027691
 3509 Fit       0.027035
 3510 Fit       0.028490
 3511 Fit       0.028686
 3512 Fit       0.029065
 3513 Fit       0.029456
 3514 Fit       0.029760
 3515 Fit       0.029922
 3516 Fit       0.029912
 3517 Fit       0.029726
 3518 Fit       0.029375
 3519 Fit       0.028899
 3520 Fit       0.028366
 3521 Fit       0.027900
 3522 Fit       0.028900
 3523 Fit       0.028970
 3524 Fit       0.029286
 3525 Fit       0.029650
 3526 Fit       0.029956
 3527 Fit       0.030140
 3528 Fit       0.030170
 3529 Fit       0.030035
 3530 Fit       0.029742
 3531 Fit       0.029321
 3532 Fit       0.028831
 3533 Fit       0.028374
 3534 Fit       0.028134
 3535 Fit       0.028490
 3536 Fit       0.028686
 3537 Fit       0.029065
 3538 Fit       0.029456
 3539 Fit       0.029760
 3540 Fit       0.029922
 3541 Fit       0.029912
 3542 Fit       0.029726
 3543 Fit       0.029375
 3544 Fit       0.028899
 3545 Fit       0.028366
 3546 Fit       0.027900
 3547 Fit       0.027400
 3548 Fit       0.027878
 3549 Fit       0.028395
 3550 Fit       0.028833
 3551 Fit       0.029122
 3552 Fit       0.029221
 3553 Fit       0.029112
 3554 Fit       0.028800
 3555 Fit       0.028309
 3556 Fit       0.027691
 3557 Fit       0.027035
 3558 Fit       0.025821
 3559 Fit       0.026604
 3560 Fit       0.027259
 3561 Fit       0.027730
 3562 Fit       0.027979
 3563 Fit       0.027983
 3564 Fit       0.027737
 3565 Fit       0.027253
 3566 Fit       0.026559
 3567 Fit       0.025704
 3568 Fit       0.024138
 3569 Fit       0.025167
 3570 Fit       0.025872
 3571 Fit       0.026242
 3572 Fit       0.026266
 3573 Fit       0.025940
 3574 Fit       0.025272
 3575 Fit       0.024276
 3576 Fit       0.022319
 3577 Fit       0.023402
 3578 Fit       0.023964
 3579 Fit       0.024022
 3580 Fit       0.023577
 3581 Fit       0.022625
 3582 Fit       0.021198
 3583 Fit       0.021124
 -----------------------------------------------------------------
 Leave Link  602 at Tue Sep 30 17:13:24 2025, MaxMem=  4294967296 cpu:               2.3 elap:               0.2
 (Enter /software/sse/easybuild/prefix/software/Gaussian/16.C.01-avx2-nsc1/g16/l9999.exe)

 Test job not archived.
 1\1\NSC-N77\FOpt\RMP2-FC\Aug-CC-pVTZ\C3H4N2\X_DAVVA\30-Sep-2025\0\\#P 
 MP2/aug-cc-pvtz Opt=tight density=MP2 Pop=(MK,Hirshfeld) iop(6/33=2) i
 op(6/42=6) maxdisk=128GB\\imidazole\\0,1\C,1.1168522431,0.2951939067,0
 .\H,2.1143505094,0.69651789,0.\C,0.6287337655,-0.9923828391,0.\H,1.191
 2437878,-1.9100516475,0.\N,-0.7442998765,-0.991542077,0.\C,-1.09045425
 92,0.2846355121,0.\H,-2.0962510382,0.6687973019,0.\N,0.0036165778,1.09
 64415366,0.\H,-0.0039917095,2.1025104162,0.\\Version=ES64L-G16RevC.01\
 State=1-A'\HF=-224.8970128\MP2=-225.793915\RMSD=7.064e-09\RMSF=2.562e-
 06\Dipole=0.4806,1.4288398,0.\Quadrupole=1.0560786,1.7944706,-2.850549
 2,-2.5354588,0.,0.\PG=CS [SG(C3H4N2)]\\@


 IF NO USE IS MADE OF THE LABOR OF PAST AGES,
 THE WORLD MUST REMAIN ALWAYS IN THE INFANCY OF KNOWLEDGE.

                          -- CICERO
 Job cpu time:       0 days  3 hours 29 minutes 58.9 seconds.
 Elapsed time:       0 days  0 hours 14 minutes 30.2 seconds.
 File lengths (MBytes):  RWF=   9156 Int=      0 D2E=      0 Chk=     16 Scr=      1
 Normal termination of Gaussian 16 at Tue Sep 30 17:13:25 2025.
