 Entering Gaussian System, Link 0=/software/sse/easybuild/prefix/software/Gaussian/16.C.01-avx2-nsc1/g16/g16.orig
 Input=guanidinium.wrap
 Output=guanidinium.log
 Initial command:
 /software/sse/easybuild/prefix/software/Gaussian/16.C.01-avx2-nsc1/g16/l1.exe "/scratch/local/Gau-2054508.inp" -scrdir="/scratch/local/"
 Entering Link 1 = /software/sse/easybuild/prefix/software/Gaussian/16.C.01-avx2-nsc1/g16/l1.exe PID=   2054509.
  
 Copyright (c) 1988-2019, Gaussian, Inc.  All Rights Reserved.
  
 This is part of the Gaussian(R) 16 program.  It is based on
 the Gaussian(R) 09 system (copyright 2009, Gaussian, Inc.),
 the Gaussian(R) 03 system (copyright 2003, Gaussian, Inc.),
 the Gaussian(R) 98 system (copyright 1998, Gaussian, Inc.),
 the Gaussian(R) 94 system (copyright 1995, Gaussian, Inc.),
 the Gaussian 92(TM) system (copyright 1992, Gaussian, Inc.),
 the Gaussian 90(TM) system (copyright 1990, Gaussian, Inc.),
 the Gaussian 88(TM) system (copyright 1988, Gaussian, Inc.),
 the Gaussian 86(TM) system (copyright 1986, Carnegie Mellon
 University), and the Gaussian 82(TM) system (copyright 1983,
 Carnegie Mellon University). Gaussian is a federally registered
 trademark of Gaussian, Inc.
  
 This software contains proprietary and confidential information,
 including trade secrets, belonging to Gaussian, Inc.
  
 This software is provided under written license and may be
 used, copied, transmitted, or stored only in accord with that
 written license.
  
 The following legend is applicable only to US Government
 contracts under FAR:
  
                    RESTRICTED RIGHTS LEGEND
  
 Use, reproduction and disclosure by the US Government is
 subject to restrictions as set forth in subparagraphs (a)
 and (c) of the Commercial Computer Software - Restricted
 Rights clause in FAR 52.227-19.
  
 Gaussian, Inc.
 340 Quinnipiac St., Bldg. 40, Wallingford CT 06492
  
  
 ---------------------------------------------------------------
 Warning -- This program may not be used in any manner that
 competes with the business of Gaussian, Inc. or will provide
 assistance to any competitor of Gaussian, Inc.  The licensee
 of this program is prohibited from giving any competitor of
 Gaussian, Inc. access to this program.  By using this program,
 the user acknowledges that Gaussian, Inc. is engaged in the
 business of creating and licensing software in the field of
 computational chemistry and represents and warrants to the
 licensee that it is not a competitor of Gaussian, Inc. and that
 it will not use this program in any manner prohibited above.
 ---------------------------------------------------------------
  

 Cite this work as:
 Gaussian 16, Revision C.01,
 M. J. Frisch, G. W. Trucks, H. B. Schlegel, G. E. Scuseria, 
 M. A. Robb, J. R. Cheeseman, G. Scalmani, V. Barone, 
 G. A. Petersson, H. Nakatsuji, X. Li, M. Caricato, A. V. Marenich, 
 J. Bloino, B. G. Janesko, R. Gomperts, B. Mennucci, H. P. Hratchian, 
 J. V. Ortiz, A. F. Izmaylov, J. L. Sonnenberg, D. Williams-Young, 
 F. Ding, F. Lipparini, F. Egidi, J. Goings, B. Peng, A. Petrone, 
 T. Henderson, D. Ranasinghe, V. G. Zakrzewski, J. Gao, N. Rega, 
 G. Zheng, W. Liang, M. Hada, M. Ehara, K. Toyota, R. Fukuda, 
 J. Hasegawa, M. Ishida, T. Nakajima, Y. Honda, O. Kitao, H. Nakai, 
 T. Vreven, K. Throssell, J. A. Montgomery, Jr., J. E. Peralta, 
 F. Ogliaro, M. J. Bearpark, J. J. Heyd, E. N. Brothers, K. N. Kudin, 
 V. N. Staroverov, T. A. Keith, R. Kobayashi, J. Normand, 
 K. Raghavachari, A. P. Rendell, J. C. Burant, S. S. Iyengar, 
 J. Tomasi, M. Cossi, J. M. Millam, M. Klene, C. Adamo, R. Cammi, 
 J. W. Ochterski, R. L. Martin, K. Morokuma, O. Farkas, 
 J. B. Foresman, and D. J. Fox, Gaussian, Inc., Wallingford CT, 2019.
 
 ******************************************
 Gaussian 16:  ES64L-G16RevC.01  3-Jul-2019
                30-Sep-2025 
 ******************************************
 %mem=12000MB
 %nprocshared=16
 Will use up to   16 processors via shared memory.
 %mem=32Gb
 %chk=guanidinium.chk
 ----------------------------------------------------------------------
 #P MP2/aug-cc-pvtz Opt=tight density=MP2 Pop=(MK,Hirshfeld) iop(6/33=2
 ) iop(6/42=6) maxdisk=128GB
 ----------------------------------------------------------------------
 1/7=10,18=20,19=15,38=1/1,3;
 2/9=110,12=2,17=6,18=5,40=1/2;
 3/5=16,6=1,7=10,11=9,25=1,30=1,71=1/1,2,3;
 4//1;
 5/5=2,38=5/2;
 8/6=4,10=1/1;
 9/15=2,16=-3/6;
 10/5=1/2;
 6/7=2,8=2,9=2,10=2,15=8,20=1,22=2,33=2,42=6,79=1/1,2;
 7/12=2/1,2,3,16;
 1/7=10,18=20,19=15/3(2);
 2/9=110/2;
 99//99;
 2/9=110/2;
 3/5=16,6=1,7=10,11=9,25=1,30=1,71=1/1,2,3;
 4/5=5,16=3,69=1/1;
 5/5=2,38=5/2;
 8/6=4,10=1/1;
 9/15=2,16=-3/6;
 10/5=1/2;
 7/12=2/1,2,3,16;
 1/7=10,18=20,19=15/3(-8);
 2/9=110/2;
 6/7=2,8=2,9=2,10=2,15=8,20=1,22=2,33=2,42=6,79=1/1,2;
 99/9=10/99;
 Leave Link    1 at Tue Sep 30 16:58:49 2025, MaxMem=  4294967296 cpu:               0.9 elap:               0.1
 (Enter /software/sse/easybuild/prefix/software/Gaussian/16.C.01-avx2-nsc1/g16/l101.exe)
 -----------
 guanidinium
 -----------
 Symbolic Z-matrix:
 Charge =  1 Multiplicity = 1
 C                     0.        0.        0. 
 N                     0.        1.3186    0. 
 N                    -1.14194  -0.6593    0. 
 N                     1.14194  -0.6593    0. 
 H                    -1.16453  -1.65107   0. 
 H                    -2.01213  -0.18298   0. 
 H                     0.8476    1.83404   0. 
 H                    -0.8476    1.83404   0. 
 H                     2.01213  -0.18298   0. 
 H                     1.16453  -1.65107   0. 
 
 ITRead=  0  0  0  0  0  0  0  0  0  0
 MicOpt= -1 -1 -1 -1 -1 -1 -1 -1 -1 -1
 NAtoms=     10 NQM=       10 NQMF=       0 NMMI=      0 NMMIF=      0
                NMic=       0 NMicF=      0.
                    Isotopes and Nuclear Properties:
 (Nuclear quadrupole moments (NQMom) in fm**2, nuclear magnetic moments (NMagM)
  in nuclear magnetons)

  Atom         1           2           3           4           5           6           7           8           9          10
 IAtWgt=          12          14          14          14           1           1           1           1           1           1
 AtmWgt=  12.0000000  14.0030740  14.0030740  14.0030740   1.0078250   1.0078250   1.0078250   1.0078250   1.0078250   1.0078250
 NucSpn=           0           2           2           2           1           1           1           1           1           1
 AtZEff=  -0.0000000  -0.0000000  -0.0000000  -0.0000000  -0.0000000  -0.0000000  -0.0000000  -0.0000000  -0.0000000  -0.0000000
 NQMom=    0.0000000   2.0440000   2.0440000   2.0440000   0.0000000   0.0000000   0.0000000   0.0000000   0.0000000   0.0000000
 NMagM=    0.0000000   0.4037610   0.4037610   0.4037610   2.7928460   2.7928460   2.7928460   2.7928460   2.7928460   2.7928460
 AtZNuc=   6.0000000   7.0000000   7.0000000   7.0000000   1.0000000   1.0000000   1.0000000   1.0000000   1.0000000   1.0000000
 Leave Link  101 at Tue Sep 30 16:58:49 2025, MaxMem=  4294967296 cpu:               5.0 elap:               0.3
 (Enter /software/sse/easybuild/prefix/software/Gaussian/16.C.01-avx2-nsc1/g16/l103.exe)

 GradGradGradGradGradGradGradGradGradGradGradGradGradGradGradGradGradGrad
 Berny optimization.
 Initialization pass.
                           ----------------------------
                           !    Initial Parameters    !
                           ! (Angstroms and Degrees)  !
 --------------------------                            --------------------------
 ! Name  Definition              Value          Derivative Info.                !
 --------------------------------------------------------------------------------
 ! R1    R(1,2)                  1.3186         estimate D2E/DX2                !
 ! R2    R(1,3)                  1.3186         estimate D2E/DX2                !
 ! R3    R(1,4)                  1.3186         estimate D2E/DX2                !
 ! R4    R(2,7)                  0.992          estimate D2E/DX2                !
 ! R5    R(2,8)                  0.992          estimate D2E/DX2                !
 ! R6    R(3,5)                  0.992          estimate D2E/DX2                !
 ! R7    R(3,6)                  0.992          estimate D2E/DX2                !
 ! R8    R(4,9)                  0.992          estimate D2E/DX2                !
 ! R9    R(4,10)                 0.992          estimate D2E/DX2                !
 ! A1    A(2,1,3)              120.0            estimate D2E/DX2                !
 ! A2    A(2,1,4)              120.0            estimate D2E/DX2                !
 ! A3    A(3,1,4)              120.0            estimate D2E/DX2                !
 ! A4    A(1,2,7)              121.3045         estimate D2E/DX2                !
 ! A5    A(1,2,8)              121.3045         estimate D2E/DX2                !
 ! A6    A(7,2,8)              117.391          estimate D2E/DX2                !
 ! A7    A(1,3,5)              121.3049         estimate D2E/DX2                !
 ! A8    A(1,3,6)              121.3048         estimate D2E/DX2                !
 ! A9    A(5,3,6)              117.3904         estimate D2E/DX2                !
 ! A10   A(1,4,9)              121.3048         estimate D2E/DX2                !
 ! A11   A(1,4,10)             121.3049         estimate D2E/DX2                !
 ! A12   A(9,4,10)             117.3904         estimate D2E/DX2                !
 ! D1    D(3,1,2,7)            180.0            estimate D2E/DX2                !
 ! D2    D(3,1,2,8)              0.0            estimate D2E/DX2                !
 ! D3    D(4,1,2,7)              0.0            estimate D2E/DX2                !
 ! D4    D(4,1,2,8)            180.0            estimate D2E/DX2                !
 ! D5    D(2,1,3,5)            180.0            estimate D2E/DX2                !
 ! D6    D(2,1,3,6)              0.0            estimate D2E/DX2                !
 ! D7    D(4,1,3,5)              0.0            estimate D2E/DX2                !
 ! D8    D(4,1,3,6)            180.0            estimate D2E/DX2                !
 ! D9    D(2,1,4,9)              0.0            estimate D2E/DX2                !
 ! D10   D(2,1,4,10)           180.0            estimate D2E/DX2                !
 ! D11   D(3,1,4,9)            180.0            estimate D2E/DX2                !
 ! D12   D(3,1,4,10)             0.0            estimate D2E/DX2                !
 --------------------------------------------------------------------------------
 Trust Radius=3.00D-01 FncErr=1.00D-07 GrdErr=1.00D-07 EigMax=2.50D+02 EigMin=1.00D-04
 Number of steps in this run=     43 maximum allowed number of steps=    100.
 GradGradGradGradGradGradGradGradGradGradGradGradGradGradGradGradGradGrad

 Leave Link  103 at Tue Sep 30 16:58:50 2025, MaxMem=  4294967296 cpu:               0.2 elap:               0.0
 (Enter /software/sse/easybuild/prefix/software/Gaussian/16.C.01-avx2-nsc1/g16/l202.exe)
                          Input orientation:                          
 ---------------------------------------------------------------------
 Center     Atomic      Atomic             Coordinates (Angstroms)
 Number     Number       Type             X           Y           Z
 ---------------------------------------------------------------------
      1          6           0        0.000000    0.000000    0.000000
      2          7           0        0.000000    1.318600    0.000000
      3          7           0       -1.141940   -0.659300    0.000000
      4          7           0        1.141940   -0.659300    0.000000
      5          1           0       -1.164530   -1.651070    0.000000
      6          1           0       -2.012130   -0.182980    0.000000
      7          1           0        0.847600    1.834040    0.000000
      8          1           0       -0.847600    1.834040    0.000000
      9          1           0        2.012130   -0.182980    0.000000
     10          1           0        1.164530   -1.651070    0.000000
 ---------------------------------------------------------------------
                    Distance matrix (angstroms):
                    1          2          3          4          5
     1  C    0.000000
     2  N    1.318600   0.000000
     3  N    1.318599   2.283882   0.000000
     4  N    1.318599   2.283882   2.283880   0.000000
     5  H    2.020436   3.189839   0.992027   2.510660   0.000000
     6  H    2.020433   2.510659   0.992024   3.189834   1.695203
     7  H    2.020428   0.992020   3.189830   2.510653   4.024259
     8  H    2.020428   0.992020   2.510653   3.189830   3.499491
     9  H    2.020433   2.510659   3.189834   0.992024   3.499494
    10  H    2.020436   3.189839   2.510660   0.992027   2.329060
                    6          7          8          9         10
     6  H    0.000000
     7  H    3.499489   0.000000
     8  H    2.329056   1.695200   0.000000
     9  H    4.024260   2.329056   3.499489   0.000000
    10  H    3.499494   3.499491   4.024259   1.695203   0.000000
 This structure is nearly, but not quite of a higher symmetry.
 Consider Symm=Loose if the higher symmetry is desired.
 Stoichiometry    CH6N3(1+)
 Framework group  C2V[C2(CN),SGV(H6N2)]
 Deg. of freedom     9
 Full point group                 C2V     NOp   4
 Largest Abelian subgroup         C2V     NOp   4
 Largest concise Abelian subgroup C2      NOp   2
                         Standard orientation:                         
 ---------------------------------------------------------------------
 Center     Atomic      Atomic             Coordinates (Angstroms)
 Number     Number       Type             X           Y           Z
 ---------------------------------------------------------------------
      1          6           0       -0.000000    0.000000    0.000001
      2          7           0       -0.000000    0.000000    1.318601
      3          7           0       -0.000000    1.141940   -0.659299
      4          7           0       -0.000000   -1.141940   -0.659299
      5          1           0       -0.000000    1.164530   -1.651069
      6          1           0       -0.000000    2.012130   -0.182979
      7          1           0        0.000000   -0.847600    1.834041
      8          1           0        0.000000    0.847600    1.834041
      9          1           0       -0.000000   -2.012130   -0.182979
     10          1           0       -0.000000   -1.164530   -1.651069
 ---------------------------------------------------------------------
 Rotational constants (GHZ):          10.3427649          10.3427528           5.1713794
 Leave Link  202 at Tue Sep 30 16:58:50 2025, MaxMem=  4294967296 cpu:               0.1 elap:               0.0
 (Enter /software/sse/easybuild/prefix/software/Gaussian/16.C.01-avx2-nsc1/g16/l301.exe)
 Standard basis: Aug-CC-pVTZ (5D, 7F)
 Ernie: Thresh=  0.10000D-02 Tol=  0.10000D-05 Strict=F.
 Ernie:  12 primitive shells out of 186 were deleted.
 There are   139 symmetry adapted cartesian basis functions of A1  symmetry.
 There are    49 symmetry adapted cartesian basis functions of A2  symmetry.
 There are    65 symmetry adapted cartesian basis functions of B1  symmetry.
 There are   117 symmetry adapted cartesian basis functions of B2  symmetry.
 There are   116 symmetry adapted basis functions of A1  symmetry.
 There are    47 symmetry adapted basis functions of A2  symmetry.
 There are    59 symmetry adapted basis functions of B1  symmetry.
 There are   100 symmetry adapted basis functions of B2  symmetry.
   322 basis functions,   450 primitive gaussians,   370 cartesian basis functions
    16 alpha electrons       16 beta electrons
       nuclear repulsion energy       135.1989715866 Hartrees.
 IExCor=    0 DFT=F Ex=HF Corr=None ExCW=0 ScaHFX=  1.000000
 ScaDFX=  1.000000  1.000000  1.000000  1.000000 ScalE2=  1.000000  1.000000
 IRadAn=      5 IRanWt=     -1 IRanGd=            0 ICorTp=0 IEmpDi=  4
 NAtoms=   10 NActive=   10 NUniq=    6 SFac= 2.78D+00 NAtFMM=   60 NAOKFM=F Big=F
 Integral buffers will be    131072 words long.
 Raffenetti 1 integral format.
 Two-electron integral symmetry is turned on.
 Leave Link  301 at Tue Sep 30 16:58:51 2025, MaxMem=  4294967296 cpu:               0.8 elap:               0.1
 (Enter /software/sse/easybuild/prefix/software/Gaussian/16.C.01-avx2-nsc1/g16/l302.exe)
 NPDir=0 NMtPBC=     1 NCelOv=     1 NCel=       1 NClECP=     1 NCelD=      1
         NCelK=      1 NCelE2=     1 NClLst=     1 CellRange=     0.0.
 One-electron integrals computed using PRISM.
 One-electron integral symmetry used in STVInt
 NBasis=   322 RedAO= T EigKep=  2.81D-05  NBF=   116    47    59   100
 NBsUse=   322 1.00D-06 EigRej= -1.00D+00 NBFU=   116    47    59   100
 Leave Link  302 at Tue Sep 30 16:58:51 2025, MaxMem=  4294967296 cpu:               2.7 elap:               0.2
 (Enter /software/sse/easybuild/prefix/software/Gaussian/16.C.01-avx2-nsc1/g16/l303.exe)
 DipDrv:  MaxL=1.
 Leave Link  303 at Tue Sep 30 16:58:52 2025, MaxMem=  4294967296 cpu:               0.6 elap:               0.1
 (Enter /software/sse/easybuild/prefix/software/Gaussian/16.C.01-avx2-nsc1/g16/l401.exe)
 ExpMin= 2.53D-02 ExpMax= 1.14D+04 ExpMxC= 3.89D+02 IAcc=3 IRadAn=         5 AccDes= 0.00D+00
 Harris functional with IExCor=  205 and IRadAn=       5 diagonalized for initial guess.
 HarFok:  IExCor=  205 AccDes= 0.00D+00 IRadAn=         5 IDoV= 1 UseB2=F ITyADJ=14
 ICtDFT=  3500011 ScaDFX=  1.000000  1.000000  1.000000  1.000000
 FoFCou: FMM=F IPFlag=           0 FMFlag=      100000 FMFlg1=           0
         NFxFlg=           0 DoJE=T BraDBF=F KetDBF=T FulRan=T
         wScrn=  0.000000 ICntrl=       500 IOpCl=  0 I1Cent=   200000004 NGrid=           0
         NMat0=    1 NMatS0=      1 NMatT0=    0 NMatD0=    1 NMtDS0=    0 NMtDT0=    0
 Petite list used in FoFCou.
 Harris En= -204.912711759495    
 JPrj=0 DoOrth=F DoCkMO=F.
 Initial guess orbital symmetries:
       Occupied  (A1) (B2) (A1) (A1) (A1) (A1) (B2) (A1) (B2) (A1)
                 (B2) (A1) (B2) (B1) (B1) (A2)
       Virtual   (B1) (A1) (B2) (A1) (A1) (B2) (B1) (A1) (A1) (B2)
                 (B2) (A1) (A2) (B1) (A1) (A1) (B2) (A1) (B2) (B2)
                 (A1) (B2) (B1) (B1) (A2) (A1) (A1) (B2) (A1) (A1)
                 (B2) (A2) (A1) (A1) (B2) (B1) (B1) (A2) (B2) (A1)
                 (B2) (A1) (B2) (A1) (B1) (A2) (A1) (B2) (B1) (A1)
                 (A1) (B2) (B2) (B1) (A2) (B2) (B1) (A1) (B2) (A1)
                 (B2) (A1) (A2) (A1) (B1) (A2) (B2) (A1) (B2) (A1)
                 (B2) (A1) (B2) (A1) (B1) (B1) (A2) (A1) (A1) (B2)
                 (A2) (B1) (A1) (A1) (B2) (B1) (A2) (B2) (B1) (A1)
                 (B2) (A1) (B2) (B1) (A2) (A1) (B2) (A1) (B2) (A2)
                 (B1) (A1) (A1) (B2) (A1) (B2) (A2) (B1) (A1) (B2)
                 (A2) (B1) (B2) (A1) (A2) (B1) (A2) (A1) (B2) (A1)
                 (A2) (B1) (A1) (B2) (B2) (B1) (B1) (A2) (B2) (A1)
                 (B2) (A1) (A1) (B2) (A1) (B2) (A1) (B1) (B1) (A2)
                 (A1) (B2) (B2) (A1) (B2) (A1) (A2) (B1) (A1) (B2)
                 (A1) (B1) (B2) (A2) (B2) (B2) (A1) (A2) (B1) (A1)
                 (A1) (B2) (B1) (B1) (A2) (A1) (A1) (B2) (A1) (B2)
                 (A1) (B2) (B2) (B1) (A2) (B2) (A1) (A2) (B1) (A2)
                 (A1) (B2) (B2) (A1) (B1) (B2) (B2) (A1) (A1) (A1)
                 (B2) (B1) (A2) (B1) (B1) (A2) (B2) (A1) (B2) (A1)
                 (B2) (A1) (A1) (B1) (A2) (B1) (A1) (B2) (A1) (A1)
                 (B2) (A2) (A2) (B1) (B2) (B1) (A1) (B2) (B1) (A2)
                 (A1) (B1) (A2) (B2) (A1) (A2) (A1) (B1) (B1) (A2)
                 (B2) (A1) (B2) (B2) (A1) (A2) (B1) (B2) (A1) (B1)
                 (A1) (B2) (A1) (A1) (B2) (A2) (A2) (B1) (B2) (A1)
                 (B2) (A1) (A2) (B2) (A1) (B2) (B2) (A1) (B2) (B1)
                 (B1) (A2) (A1) (B2) (B1) (A1) (B2) (B1) (A2) (A1)
                 (B2) (A1) (A1) (B1) (A2) (B2) (A1) (A2) (B1) (A2)
                 (B2) (B1) (B2) (A1) (A1) (B1) (A2) (B2) (A1) (B2)
                 (B2) (A1) (A1) (A1) (B2) (A1) (A1) (B2) (B2) (A1)
                 (B2) (B2) (A1) (B2) (A1) (A1)
 The electronic state of the initial guess is 1-A1.
 Leave Link  401 at Tue Sep 30 16:58:53 2025, MaxMem=  4294967296 cpu:               4.6 elap:               0.3
 (Enter /software/sse/easybuild/prefix/software/Gaussian/16.C.01-avx2-nsc1/g16/l502.exe)
 Keep R1 ints in memory in symmetry-blocked form, NReq=1695226965.
 FoFCou: FMM=F IPFlag=           0 FMFlag=           0 FMFlg1=           0
         NFxFlg=           0 DoJE=F BraDBF=F KetDBF=F FulRan=T
         wScrn=  0.000000 ICntrl=       600 IOpCl=  0 I1Cent=           0 NGrid=           0
         NMat0=    1 NMatS0=  52003 NMatT0=    0 NMatD0=    1 NMtDS0=    0 NMtDT0=    0
 Petite list used in FoFCou.
 Closed shell SCF:
 Using DIIS extrapolation, IDIIS=  1040.
 NGot=  4294967296 LenX=  3951641360 LenY=  3951504019
 Requested convergence on RMS density matrix=1.00D-08 within 128 cycles.
 Requested convergence on MAX density matrix=1.00D-06.
 Requested convergence on             energy=1.00D-06.
 No special actions if energy rises.

 Cycle   1  Pass 1  IDiag  1:
 E= -204.441118739533    
 DIIS: error= 4.76D-02 at cycle   1 NSaved=   1.
 NSaved= 1 IEnMin= 1 EnMin= -204.441118739533     IErMin= 1 ErrMin= 4.76D-02
 ErrMax= 4.76D-02  0.00D+00 EMaxC= 1.00D-01 BMatC= 4.68D-01 BMatP= 4.68D-01
 IDIUse=3 WtCom= 5.24D-01 WtEn= 4.76D-01
 Coeff-Com:  0.100D+01
 Coeff-En:   0.100D+01
 Coeff:      0.100D+01
 Gap=     0.467 Goal=   None    Shift=    0.000
 GapD=    0.467 DampG=2.000 DampE=0.500 DampFc=1.0000 IDamp=-1.
 RMSDP=1.24D-03 MaxDP=1.16D-01              OVMax= 9.08D-02

 Cycle   2  Pass 1  IDiag  1:
 E= -204.588922081437     Delta-E=       -0.147803341905 Rises=F Damp=F
 DIIS: error= 1.62D-02 at cycle   2 NSaved=   2.
 NSaved= 2 IEnMin= 2 EnMin= -204.588922081437     IErMin= 2 ErrMin= 1.62D-02
 ErrMax= 1.62D-02  0.00D+00 EMaxC= 1.00D-01 BMatC= 4.06D-02 BMatP= 4.68D-01
 IDIUse=3 WtCom= 8.38D-01 WtEn= 1.62D-01
 Coeff-Com:  0.147D+00 0.853D+00
 Coeff-En:   0.000D+00 0.100D+01
 Coeff:      0.124D+00 0.876D+00
 Gap=     0.555 Goal=   None    Shift=    0.000
 RMSDP=3.60D-04 MaxDP=1.73D-02 DE=-1.48D-01 OVMax= 4.33D-02

 Cycle   3  Pass 1  IDiag  1:
 E= -204.614923935161     Delta-E=       -0.026001853723 Rises=F Damp=F
 DIIS: error= 5.45D-03 at cycle   3 NSaved=   3.
 NSaved= 3 IEnMin= 3 EnMin= -204.614923935161     IErMin= 3 ErrMin= 5.45D-03
 ErrMax= 5.45D-03  0.00D+00 EMaxC= 1.00D-01 BMatC= 3.88D-03 BMatP= 4.06D-02
 IDIUse=3 WtCom= 9.46D-01 WtEn= 5.45D-02
 Coeff-Com: -0.280D-01 0.198D+00 0.830D+00
 Coeff-En:   0.000D+00 0.000D+00 0.100D+01
 Coeff:     -0.265D-01 0.188D+00 0.839D+00
 Gap=     0.531 Goal=   None    Shift=    0.000
 RMSDP=7.95D-05 MaxDP=3.99D-03 DE=-2.60D-02 OVMax= 8.59D-03

 Cycle   4  Pass 1  IDiag  1:
 E= -204.617565930112     Delta-E=       -0.002641994952 Rises=F Damp=F
 DIIS: error= 7.76D-04 at cycle   4 NSaved=   4.
 NSaved= 4 IEnMin= 4 EnMin= -204.617565930112     IErMin= 4 ErrMin= 7.76D-04
 ErrMax= 7.76D-04  0.00D+00 EMaxC= 1.00D-01 BMatC= 2.52D-05 BMatP= 3.88D-03
 IDIUse=3 WtCom= 9.92D-01 WtEn= 7.76D-03
 Coeff-Com:  0.345D-02-0.399D-01-0.141D+00 0.118D+01
 Coeff-En:   0.000D+00 0.000D+00 0.000D+00 0.100D+01
 Coeff:      0.342D-02-0.396D-01-0.140D+00 0.118D+01
 Gap=     0.531 Goal=   None    Shift=    0.000
 RMSDP=1.53D-05 MaxDP=1.26D-03 DE=-2.64D-03 OVMax= 4.70D-03

 Cycle   5  Pass 1  IDiag  1:
 E= -204.617626183341     Delta-E=       -0.000060253229 Rises=F Damp=F
 DIIS: error= 2.11D-04 at cycle   5 NSaved=   5.
 NSaved= 5 IEnMin= 5 EnMin= -204.617626183341     IErMin= 5 ErrMin= 2.11D-04
 ErrMax= 2.11D-04  0.00D+00 EMaxC= 1.00D-01 BMatC= 5.50D-06 BMatP= 2.52D-05
 IDIUse=3 WtCom= 9.98D-01 WtEn= 2.11D-03
 Coeff-Com:  0.316D-02-0.263D-01-0.106D+00 0.249D+00 0.880D+00
 Coeff-En:   0.000D+00 0.000D+00 0.000D+00 0.000D+00 0.100D+01
 Coeff:      0.315D-02-0.262D-01-0.106D+00 0.249D+00 0.880D+00
 Gap=     0.531 Goal=   None    Shift=    0.000
 RMSDP=5.82D-06 MaxDP=4.26D-04 DE=-6.03D-05 OVMax= 8.51D-04

 Cycle   6  Pass 1  IDiag  1:
 E= -204.617634163580     Delta-E=       -0.000007980239 Rises=F Damp=F
 DIIS: error= 8.79D-05 at cycle   6 NSaved=   6.
 NSaved= 6 IEnMin= 6 EnMin= -204.617634163580     IErMin= 6 ErrMin= 8.79D-05
 ErrMax= 8.79D-05  0.00D+00 EMaxC= 1.00D-01 BMatC= 2.97D-07 BMatP= 5.50D-06
 IDIUse=1 WtCom= 1.00D+00 WtEn= 0.00D+00
 Coeff-Com: -0.567D-03 0.640D-02 0.241D-01-0.142D+00-0.120D+00 0.123D+01
 Coeff:     -0.567D-03 0.640D-02 0.241D-01-0.142D+00-0.120D+00 0.123D+01
 Gap=     0.532 Goal=   None    Shift=    0.000
 RMSDP=2.05D-06 MaxDP=1.64D-04 DE=-7.98D-06 OVMax= 6.22D-04

 Cycle   7  Pass 1  IDiag  1:
 E= -204.617635013732     Delta-E=       -0.000000850152 Rises=F Damp=F
 DIIS: error= 9.65D-06 at cycle   7 NSaved=   7.
 NSaved= 7 IEnMin= 7 EnMin= -204.617635013732     IErMin= 7 ErrMin= 9.65D-06
 ErrMax= 9.65D-06  0.00D+00 EMaxC= 1.00D-01 BMatC= 1.17D-08 BMatP= 2.97D-07
 IDIUse=1 WtCom= 1.00D+00 WtEn= 0.00D+00
 Coeff-Com: -0.416D-04 0.133D-03 0.149D-04 0.186D-01-0.193D-01-0.264D+00
 Coeff-Com:  0.126D+01
 Coeff:     -0.416D-04 0.133D-03 0.149D-04 0.186D-01-0.193D-01-0.264D+00
 Coeff:      0.126D+01
 Gap=     0.532 Goal=   None    Shift=    0.000
 RMSDP=4.00D-07 MaxDP=2.07D-05 DE=-8.50D-07 OVMax= 8.47D-05

 Cycle   8  Pass 1  IDiag  1:
 E= -204.617635038801     Delta-E=       -0.000000025069 Rises=F Damp=F
 DIIS: error= 9.80D-07 at cycle   8 NSaved=   8.
 NSaved= 8 IEnMin= 8 EnMin= -204.617635038801     IErMin= 8 ErrMin= 9.80D-07
 ErrMax= 9.80D-07  0.00D+00 EMaxC= 1.00D-01 BMatC= 1.14D-10 BMatP= 1.17D-08
 IDIUse=1 WtCom= 1.00D+00 WtEn= 0.00D+00
 Coeff-Com:  0.100D-04-0.833D-04-0.338D-03-0.206D-03 0.283D-02 0.187D-01
 Coeff-Com: -0.170D+00 0.115D+01
 Coeff:      0.100D-04-0.833D-04-0.338D-03-0.206D-03 0.283D-02 0.187D-01
 Coeff:     -0.170D+00 0.115D+01
 Gap=     0.532 Goal=   None    Shift=    0.000
 RMSDP=3.92D-08 MaxDP=2.35D-06 DE=-2.51D-08 OVMax= 4.95D-06

 Cycle   9  Pass 1  IDiag  1:
 E= -204.617635038987     Delta-E=       -0.000000000186 Rises=F Damp=F
 DIIS: error= 2.06D-07 at cycle   9 NSaved=   9.
 NSaved= 9 IEnMin= 9 EnMin= -204.617635038987     IErMin= 9 ErrMin= 2.06D-07
 ErrMax= 2.06D-07  0.00D+00 EMaxC= 1.00D-01 BMatC= 2.22D-12 BMatP= 1.14D-10
 IDIUse=1 WtCom= 1.00D+00 WtEn= 0.00D+00
 Coeff-Com: -0.137D-05 0.162D-04 0.693D-04-0.194D-03-0.514D-03 0.144D-03
 Coeff-Com:  0.174D-01-0.263D+00 0.125D+01
 Coeff:     -0.137D-05 0.162D-04 0.693D-04-0.194D-03-0.514D-03 0.144D-03
 Coeff:      0.174D-01-0.263D+00 0.125D+01
 Gap=     0.532 Goal=   None    Shift=    0.000
 RMSDP=6.79D-09 MaxDP=3.63D-07 DE=-1.86D-10 OVMax= 8.00D-07

 SCF Done:  E(RHF) =  -204.617635039     A.U. after    9 cycles
            NFock=  9  Conv=0.68D-08     -V/T= 2.0004
 KE= 2.045280034613D+02 PE=-7.417796595018D+02 EE= 1.974350494149D+02
 Leave Link  502 at Tue Sep 30 16:59:01 2025, MaxMem=  4294967296 cpu:             115.5 elap:               8.3
 (Enter /software/sse/easybuild/prefix/software/Gaussian/16.C.01-avx2-nsc1/g16/l801.exe)
 ExpMin= 2.53D-02 ExpMax= 1.14D+04 ExpMxC= 3.89D+02 IAcc=3 IRadAn=         5 AccDes= 0.00D+00
 HarFok:  IExCor=  205 AccDes= 0.00D+00 IRadAn=         5 IDoV=-2 UseB2=F ITyADJ=14
 ICtDFT= 12500011 ScaDFX=  1.000000  1.000000  1.000000  1.000000
 Largest valence mixing into a core orbital is  1.87D-04
 Largest core mixing into a valence orbital is  3.11D-05
 Range of M.O.s used for correlation:     5   322
 NBasis=   322 NAE=    16 NBE=    16 NFC=     4 NFV=     0
 NROrb=    318 NOA=    12 NOB=    12 NVA=   306 NVB=   306

 **** Warning!!: The largest alpha MO coefficient is  0.54345452D+02

 Leave Link  801 at Tue Sep 30 16:59:02 2025, MaxMem=  4294967296 cpu:               0.9 elap:               0.1
 (Enter /software/sse/easybuild/prefix/software/Gaussian/16.C.01-avx2-nsc1/g16/l906.exe)
 Frozen-core derivative calculation, NFC=   4 NFV=   0.
 FulOut=F Deriv=T AODrv=T NAtomX=    10
   MMem=          17  MDisk=          12 MDiskD=          12
  W3Min=     1906240 MinDsk=     3410155 NBas6D=         370
 NBas2D=       69457    NTT=       68635    LW2=     3500000
    MDV=  4293711919 MDiskM=       57996 NBas2p=       38219
 Fully direct method using O(ONN) memory.
 IMap=   1   2   3   4   5   6   7   8   9  10  11  12  13  14  15  16
 JobTyp=1 Pass  1:  I=   5 to  16 NPSUse= 16 ParTrn=T ParDer=T DoDerP=T.
 Spin components of T(2) and E(2):
     alpha-alpha T2 =       0.2709366530D-01 E2=     -0.9535622448D-01
     alpha-beta  T2 =       0.1550840833D+00 E2=     -0.5920513584D+00
     beta-beta   T2 =       0.2709366530D-01 E2=     -0.9535622448D-01
 The integrals were generated   1 times.
 ANorm=    0.1099668775D+01
 E2 =    -0.7827638073D+00 EUMP2 =    -0.20540039884631D+03
 Leave Link  906 at Tue Sep 30 16:59:52 2025, MaxMem=  4294967296 cpu:             799.1 elap:              50.2
 (Enter /software/sse/easybuild/prefix/software/Gaussian/16.C.01-avx2-nsc1/g16/l1002.exe)
 Minotr:  Closed shell wavefunction.
          Computing MP2/KS-MP2 derivatives.
          Using Z-Vector for PSCF gradient.
          Skipping F1 and S1 gradient terms here.
          IDoAtm=1111111111
          Frozen-core window.
          Direct CPHF calculation.
          Differentiating once with respect to electric field.
                with respect to dipole field.
          Differentiating once with respect to nuclear coordinates.
          Using symmetry in CPHF.
          Requested convergence is 1.0D-10 RMS, and 1.0D-09 maximum.
          NewPWx=F KeepS1=T KeepF1=T KeepIn=T MapXYZ=F SortEE=F KeepMc=T.
 Keep R1 ints in memory in symmetry-blocked form, NReq=1695229001.
 FoFCou: FMM=F IPFlag=           0 FMFlag=           0 FMFlg1=           0
         NFxFlg=           0 DoJE=F BraDBF=F KetDBF=F FulRan=T
         wScrn=  0.000000 ICntrl=       600 IOpCl=  0 I1Cent=           0 NGrid=           0
         NMat0=    1 NMatS0=  52003 NMatT0=    0 NMatD0=    1 NMtDS0=    0 NMtDT0=    0
 Petite list used in FoFCou.
          MDV=    4294967296 using IRadAn=       5.
          Solving linear equations separately, MaxMat=       0.
          There are     1 degrees of freedom in the 1st order CPHF.  IDoFFX=0 NUNeed=     1.
 LinEq1:  Iter=  0 NonCon=     1 RMS=2.62D-03 Max=1.15D-01 NDo=     1
 AX will form     1 AO Fock derivatives at one time.
 LinEq1:  Iter=  1 NonCon=     1 RMS=6.77D-04 Max=8.95D-03 NDo=     1
 LinEq1:  Iter=  2 NonCon=     1 RMS=2.25D-04 Max=5.79D-03 NDo=     1
 LinEq1:  Iter=  3 NonCon=     1 RMS=3.16D-05 Max=4.68D-04 NDo=     1
 LinEq1:  Iter=  4 NonCon=     1 RMS=1.01D-05 Max=1.55D-04 NDo=     1
 LinEq1:  Iter=  5 NonCon=     1 RMS=1.92D-06 Max=2.30D-05 NDo=     1
 LinEq1:  Iter=  6 NonCon=     1 RMS=2.37D-07 Max=2.96D-06 NDo=     1
 LinEq1:  Iter=  7 NonCon=     1 RMS=2.17D-08 Max=3.08D-07 NDo=     1
 LinEq1:  Iter=  8 NonCon=     1 RMS=2.39D-09 Max=3.24D-08 NDo=     1
 LinEq1:  Iter=  9 NonCon=     1 RMS=2.30D-10 Max=3.61D-09 NDo=     1
 LinEq1:  Iter= 10 NonCon=     0 RMS=2.88D-11 Max=4.30D-10 NDo=     1
 Linear equations converged to 1.000D-10 1.000D-09 after    10 iterations.
 End of Minotr F.D. properties file   721 does not exist.
 End of Minotr F.D. properties file   722 does not exist.
 End of Minotr F.D. properties file   788 does not exist.
 Leave Link 1002 at Tue Sep 30 17:00:02 2025, MaxMem=  4294967296 cpu:             117.3 elap:              10.1
 (Enter /software/sse/easybuild/prefix/software/Gaussian/16.C.01-avx2-nsc1/g16/l601.exe)
 Copying SCF densities to generalized density rwf, IOpCl= 0 IROHF=0.
 SCF density gives NOpUse=  4 NOpAll=  4.

 **********************************************************************

            Population analysis using the MP2 Density.

 **********************************************************************

 Orbital symmetries:
 BldTbl:  Degeneracy threshold= 1.00D-02
       Occupied  (B2) (A1) (A1) (A1) (A1) (A1) (B2) (A1) (B2) (A1)
                 (B2) (B2) (A1) (B1) (B1) (A2)
       Virtual   (A1) (B2) (A1) (B1) (B2) (A1) (A1) (B2) (B1) (A1)
                 (A2) (B1) (B2) (A1) (A1) (B2) (A1) (A1) (B2) (B2)
                 (B1) (B1) (A2) (B2) (A1) (A1) (A1) (B2) (A1) (B2)
                 (A1) (A2) (B1) (A2) (B1) (B2) (A1) (A1) (A1) (B2)
                 (B2) (B2) (A1) (A1) (B1) (A2) (B2) (A1) (B1) (B2)
                 (A1) (B2) (B2) (A1) (A2) (B1) (A1) (B2) (A1) (B2)
                 (A1) (B1) (A1) (A2) (B1) (A2) (B2) (A1) (B2) (A1)
                 (B2) (B2) (A1) (A1) (B1) (A2) (B1) (B2) (A1) (A1)
                 (B1) (A2) (B2) (A1) (B2) (A1) (B1) (A2) (A1) (B2)
                 (B1) (B2) (A1) (A2) (B1) (A1) (B2) (A2) (B1) (A1)
                 (B2) (A1) (A1) (B2) (A2) (B1) (A1) (B2) (A2) (A1)
                 (B2) (A2) (B1) (A1) (B2) (B2) (A1) (B1) (A2) (B2)
                 (A1) (A1) (B2) (A2) (B1) (B2) (A1) (B1) (A1) (B1)
                 (A2) (B2) (B2) (A1) (B2) (A1) (B2) (A1) (B1) (B1)
                 (A2) (A1) (B2) (A1) (B2) (A1) (A2) (B1) (A1) (B2)
                 (B1) (A1) (B2) (A2) (B2) (B2) (A1) (B1) (A2) (A1)
                 (B2) (A1) (A2) (B1) (B1) (A1) (B2) (A1) (A1) (B2)
                 (B2) (B2) (A1) (B1) (A2) (B2) (A1) (A2) (A2) (B1)
                 (B2) (A1) (B2) (A1) (B2) (B1) (B2) (A1) (A1) (A1)
                 (B2) (B1) (A2) (B2) (B1) (A1) (B1) (A2) (A1) (B2)
                 (B2) (A1) (A1) (B1) (A2) (B2) (A1) (B1) (A1) (A2)
                 (A1) (B2) (B2) (B1) (A2) (B1) (A2) (A1) (B2) (B1)
                 (B1) (A2) (A2) (A1) (B1) (B2) (A1) (A1) (B1) (A2)
                 (B2) (A1) (B2) (A1) (B2) (B1) (A2) (B2) (A1) (B1)
                 (A1) (B2) (A1) (A2) (A1) (B2) (A2) (B1) (B2) (A1)
                 (B2) (A1) (B2) (A1) (B2) (A2) (A1) (B2) (B2) (A1)
                 (B2) (B1) (B1) (A2) (B1) (A1) (B2) (A1) (B1) (A2)
                 (B2) (A1) (A1) (A2) (B1) (A2) (B1) (B2) (A1) (A2)
                 (B2) (B1) (B1) (A2) (B2) (A1) (A1) (B2) (A1) (B2)
                 (B2) (A1) (A1) (A1) (B2) (A1) (A1) (B2) (B2) (A1)
                 (B2) (B2) (A1) (B2) (A1) (A1)
 The electronic state is 1-A1.
 Alpha  occ. eigenvalues --  -15.79581 -15.79581 -15.79577 -11.60514  -1.56230
 Alpha  occ. eigenvalues --   -1.41230  -1.41229  -1.08860  -0.99620  -0.99620
 Alpha  occ. eigenvalues --   -0.87927  -0.87755  -0.87755  -0.82549  -0.63526
 Alpha  occ. eigenvalues --   -0.63526
 Alpha virt. eigenvalues --   -0.10365  -0.07980  -0.07980  -0.05672  -0.05261
 Alpha virt. eigenvalues --   -0.05261  -0.02207  -0.01664  -0.00766  -0.00343
 Alpha virt. eigenvalues --    0.00017   0.00017   0.00333   0.00333   0.02126
 Alpha virt. eigenvalues --    0.03726   0.03726   0.03943   0.03943   0.07855
 Alpha virt. eigenvalues --    0.08380   0.09301   0.09301   0.10796   0.10796
 Alpha virt. eigenvalues --    0.13207   0.16385   0.16385   0.17731   0.17731
 Alpha virt. eigenvalues --    0.17885   0.18690   0.21495   0.21552   0.21552
 Alpha virt. eigenvalues --    0.22588   0.22588   0.22929   0.24734   0.24734
 Alpha virt. eigenvalues --    0.24767   0.27114   0.27114   0.27986   0.28639
 Alpha virt. eigenvalues --    0.28639   0.29853   0.29853   0.32932   0.34424
 Alpha virt. eigenvalues --    0.36542   0.37457   0.39316   0.39316   0.40946
 Alpha virt. eigenvalues --    0.40946   0.46771   0.46771   0.48055   0.48055
 Alpha virt. eigenvalues --    0.48083   0.48376   0.53109   0.53257   0.54586
 Alpha virt. eigenvalues --    0.54586   0.55488   0.55488   0.57699   0.58182
 Alpha virt. eigenvalues --    0.58182   0.67344   0.67344   0.67779   0.70101
 Alpha virt. eigenvalues --    0.72423   0.72423   0.74243   0.74243   0.74696
 Alpha virt. eigenvalues --    0.79470   0.79470   0.82429   0.83098   0.83098
 Alpha virt. eigenvalues --    0.83225   0.83405   0.83405   0.84705   0.84706
 Alpha virt. eigenvalues --    0.88757   0.89671   0.89671   0.90585   0.90585
 Alpha virt. eigenvalues --    0.91653   0.92206   0.96455   0.97515   0.97960
 Alpha virt. eigenvalues --    0.97961   1.04232   1.07265   1.07266   1.07610
 Alpha virt. eigenvalues --    1.07610   1.07786   1.08916   1.12580   1.12580
 Alpha virt. eigenvalues --    1.12580   1.14237   1.14237   1.14837   1.14837
 Alpha virt. eigenvalues --    1.18425   1.18425   1.19823   1.19823   1.20496
 Alpha virt. eigenvalues --    1.23113   1.23378   1.23378   1.26292   1.31059
 Alpha virt. eigenvalues --    1.34416   1.34417   1.35501   1.38438   1.38906
 Alpha virt. eigenvalues --    1.38906   1.39612   1.40414   1.40414   1.49155
 Alpha virt. eigenvalues --    1.49155   1.57195   1.59329   1.62668   1.63608
 Alpha virt. eigenvalues --    1.63608   1.66647   1.66647   1.83831   1.83831
 Alpha virt. eigenvalues --    1.85281   1.86408   1.86408   1.87019   1.87019
 Alpha virt. eigenvalues --    1.89491   1.89493   1.89992   1.96011   1.98822
 Alpha virt. eigenvalues --    2.00460   2.00460   2.02982   2.02982   2.12049
 Alpha virt. eigenvalues --    2.16916   2.16916   2.22187   2.22187   2.24688
 Alpha virt. eigenvalues --    2.26734   2.26734   2.27428   2.32250   2.32250
 Alpha virt. eigenvalues --    2.38733   2.39431   2.39431   2.40134   2.40134
 Alpha virt. eigenvalues --    2.46162   2.46162   2.47801   2.54236   2.54236
 Alpha virt. eigenvalues --    2.61603   2.67191   2.72393   2.72394   2.87326
 Alpha virt. eigenvalues --    2.89550   2.91102   2.91102   2.98382   3.25854
 Alpha virt. eigenvalues --    3.25854   3.43392   3.43392   3.53004   3.56836
 Alpha virt. eigenvalues --    3.59419   3.61149   3.61149   3.62321   3.62321
 Alpha virt. eigenvalues --    3.79466   3.79466   3.80006   3.85686   3.85686
 Alpha virt. eigenvalues --    3.89502   3.89502   3.89966   3.92608   3.95762
 Alpha virt. eigenvalues --    3.97016   3.97016   4.08802   4.09957   4.09957
 Alpha virt. eigenvalues --    4.11788   4.11788   4.13206   4.13206   4.15416
 Alpha virt. eigenvalues --    4.22753   4.22754   4.26559   4.30617   4.31698
 Alpha virt. eigenvalues --    4.34458   4.34458   4.37640   4.40147   4.40147
 Alpha virt. eigenvalues --    4.42137   4.42137   4.52771   4.52772   4.55031
 Alpha virt. eigenvalues --    4.60768   4.60769   4.70553   4.70553   4.73897
 Alpha virt. eigenvalues --    4.74547   4.75554   4.79742   4.80248   4.83333
 Alpha virt. eigenvalues --    4.83333   4.90663   4.90664   4.97189   4.98840
 Alpha virt. eigenvalues --    4.98840   5.04378   5.09302   5.12440   5.12441
 Alpha virt. eigenvalues --    5.20924   5.22107   5.22107   5.26084   5.30220
 Alpha virt. eigenvalues --    5.30221   5.37752   5.40425   5.40425   5.41990
 Alpha virt. eigenvalues --    5.42230   5.42230   5.46561   5.55153   5.55153
 Alpha virt. eigenvalues --    5.61066   5.61066   5.78851   5.79847   5.79847
 Alpha virt. eigenvalues --    5.86280   5.86280   5.91418   5.91418   5.93739
 Alpha virt. eigenvalues --    5.94135   6.02966   6.18923   6.18923   6.18946
 Alpha virt. eigenvalues --    6.18947   6.24445   6.41855   6.51059   6.51059
 Alpha virt. eigenvalues --    6.70814   6.70814   6.75935   6.97201   6.97202
 Alpha virt. eigenvalues --    7.28331   7.39053   7.39053   7.60819   7.68041
 Alpha virt. eigenvalues --    7.68041   8.01552  17.27998  18.47822  18.47832
 Alpha virt. eigenvalues --   19.22691
          Condensed to atoms (all electrons):
               1          2          3          4          5          6
     1  C    5.550196   0.145588   0.145587   0.145587  -0.107605  -0.107606
     2  N    0.145588   6.640108  -0.150271  -0.150271   0.010848  -0.033264
     3  N    0.145587  -0.150271   6.640116  -0.150271   0.375498   0.375499
     4  N    0.145587  -0.150271  -0.150271   6.640116  -0.033263   0.010848
     5  H   -0.107605   0.010848   0.375498  -0.033263   0.741413  -0.133194
     6  H   -0.107606  -0.033264   0.375499   0.010848  -0.133194   0.741417
     7  H   -0.107607   0.375500   0.010848  -0.033265   0.002397  -0.003706
     8  H   -0.107607   0.375500  -0.033265   0.010848  -0.003706  -0.001232
     9  H   -0.107606  -0.033264   0.010848   0.375499  -0.003706   0.002397
    10  H   -0.107605   0.010848  -0.033263   0.375498  -0.001232  -0.003706
               7          8          9         10
     1  C   -0.107607  -0.107607  -0.107606  -0.107605
     2  N    0.375500   0.375500  -0.033264   0.010848
     3  N    0.010848  -0.033265   0.010848  -0.033263
     4  N   -0.033265   0.010848   0.375499   0.375498
     5  H    0.002397  -0.003706  -0.003706  -0.001232
     6  H   -0.003706  -0.001232   0.002397  -0.003706
     7  H    0.741421  -0.133196  -0.001232  -0.003706
     8  H   -0.133196   0.741421  -0.003706   0.002397
     9  H   -0.001232  -0.003706   0.741417  -0.133194
    10  H   -0.003706   0.002397  -0.133194   0.741413
 Mulliken charges:
               1
     1  C    0.658679
     2  N   -0.191321
     3  N   -0.191325
     4  N   -0.191325
     5  H    0.152551
     6  H    0.152549
     7  H    0.152547
     8  H    0.152547
     9  H    0.152549
    10  H    0.152551
 Sum of Mulliken charges =   1.00000
 Mulliken charges with hydrogens summed into heavy atoms:
               1
     1  C    0.658679
     2  N    0.113772
     3  N    0.113774
     4  N    0.113774
 DipInt: DoE/N= T F RetVal/Mat= T F Init=T NMatP=  1 IDeriv=0 Min/MaxMlt=  0  4
 Entering OneElI...
 OneElI was handed  4294616540 working-precision words.
 Multipole integrals L=0 to 4 MinM= 0 MaxM= 0.
 Requested accuracy = 0.1000D-12
 ShPair: Thresh= 1.00D-13 NBox=     0 BxSize= 0.00D+00 RnKept= 7.60D+00
         NSMCal=                 6105 NSMKep=                6102
 PrmmSu-InSpLW:  IPartL=    0 NPrtUS=    1 NPrtUL=    1 DoSpLW=F IThBeg=    0 IThEnd=    0 NThAct=    1.
 PrSmSu:  IncTry=   512 NBBP=           6102 NTPThr=   100 NPartT=    1 Incr=          61 LDynOK=F GPUOK=F.
 PrsmSu:  NPrtUS=   1 ThrOK=F IAlg=2 LenDen=           0 ISkipM=0 DoSpLW=F IThBeg=    0 IThEnd=    0.
 Prism:   IPart=     0 DynPar=F LinDyn=F Incr=          61.
 PRISM was handed  4294202602 working-precision words and  6102 shell-pairs
 IPart=  0 NShTot=        6102 NBatch=          73 AvBLen=        83.6
 PrsmSu-ThDecC:  IPartSL=    0    0 NPrtUSL=    1    1 IThBeg=    0 IThEnd=    0 CPU=   -1 GPU=   -1 NThAct=    1.
 PrSmSu:  NxtVal=             62.
 Electronic moments (au):
        -32.00000000          0.00000000          0.00000000         -0.00001189
        -19.65854212       -116.48418060       -116.48428191         -0.00000000
         -0.00000000         -0.00000000          0.00000000          0.00000000
       -103.28948021          0.00000000          0.00000000          0.00001986
          0.00000000          0.00000000        103.28977165          0.00000000
        -67.53229541       -999.46079355       -999.46159421         -0.00000000
         -0.00000000         -0.00000000         -0.00000000         -0.00000000
         -0.00000000        -81.70860069        -81.70862997       -333.15366105
          0.00000000         -0.00000000         -0.00000000
 Electronic spatial extent (au):  <R**2>=            252.6270
 DipInt: DoE/N= F T RetVal/Mat= T F Init=T NMatP=  1 IDeriv=0 Min/MaxMlt=  0  4
 Nuclear    moments (au):
         33.00000000         -0.00000000          0.00000000         -0.00000000
          0.00000000        108.92756018        108.92763927          0.00000000
          0.00000000         -0.00000000         -0.00000000          0.00000000
        103.66012834         -0.00000000         -0.00000000         -0.00000000
         -0.00000000          0.00000000       -103.66082722         -0.00000000
          0.00000000        781.73702134        781.73708743          0.00000000
          0.00000000          0.00000000         -0.00000000          0.00000000
          0.00000000          0.00000000          0.00000000        260.57907839
          0.00000000          0.00000000          0.00000000
 Total      moments (au):
          1.00000000         -0.00000000          0.00000000         -0.00001189
        -19.65854212         -7.55662042         -7.55664263          0.00000000
          0.00000000         -0.00000000          0.00000000          0.00000000
          0.37064812         -0.00000000          0.00000000          0.00001986
          0.00000000          0.00000000         -0.37105557          0.00000000
        -67.53229541       -217.72377221       -217.72450678         -0.00000000
         -0.00000000         -0.00000000         -0.00000000         -0.00000000
         -0.00000000        -81.70860069        -81.70862997        -72.57458266
          0.00000000         -0.00000000         -0.00000000
 Traceless Quadrup. (au):
         -8.06794039          4.03398130          4.03395909          0.00000000
          0.00000000         -0.00000000
 Charge=              1.0000 electrons
 Dipole moment (field-independent basis, Debye):
    X=             -0.0000    Y=              0.0000    Z=             -0.0000  Tot=              0.0000
 Quadrupole moment (field-independent basis, Debye-Ang):
   XX=            -26.4414   YY=            -10.1639   ZZ=            -10.1639
   XY=              0.0000   XZ=              0.0000   YZ=             -0.0000
 Traceless Quadrupole moment (field-independent basis, Debye-Ang):
   XX=            -10.8517   YY=              5.4258   ZZ=              5.4258
   XY=              0.0000   XZ=              0.0000   YZ=             -0.0000
 Octapole moment (field-independent basis, Debye-Ang**2):
  XXX=              0.0000  YYY=              0.0000  ZZZ=              0.2638  XYY=             -0.0000
  XXY=              0.0000  XXZ=              0.0000  XZZ=              0.0000  YZZ=              0.0000
  YYZ=             -0.2641  XYZ=              0.0000
 Hexadecapole moment (field-independent basis, Debye-Ang**3):
 XXXX=            -25.4359 YYYY=            -82.0052 ZZZZ=            -82.0055 XXXY=             -0.0000
 XXXZ=             -0.0000 YYYX=             -0.0000 YYYZ=             -0.0000 ZZZX=             -0.0000
 ZZZY=             -0.0000 XXYY=            -30.7754 XXZZ=            -30.7754 YYZZ=            -27.3351
 XXYZ=              0.0000 YYXZ=             -0.0000 ZZXY=             -0.0000
 N-N= 1.351989715866D+02 E-N=-7.423471236406D+02  KE= 2.054641179833D+02
 Symmetry A1   KE= 1.381941563426D+02
 Symmetry A2   KE= 3.445748447507D+00
 Symmetry B1   KE= 6.143832189755D+00
 Symmetry B2   KE= 5.768038100344D+01
 SetAtRh:  ITypeU=  23 NETotI=      -1 ICharg=  0 NETot=      33.
 StAtR1:  I=    1 I1=    1 IA=  6 C=   6.0 OKShel=TTT
                                                  SSP
                                                  222
 StAtR1:  I=    2 I1=    2 IA=  7 C=   7.0 OKShel=TTT
                                                  SSP
                                                  223
 StAtR1:  I=    3 I1=    3 IA=  7 C=   7.0 OKShel=TTT
                                                  SSP
                                                  223
 StAtR1:  I=    4 I1=    4 IA=  7 C=   7.0 OKShel=TTT
                                                  SSP
                                                  223
 StAtR1:  I=    5 I1=    5 IA=  1 C=   1.0 OKShel=T
                                                  S
                                                  1
 StAtR1:  I=    6 I1=    6 IA=  1 C=   1.0 OKShel=T
                                                  S
                                                  1
 StAtR1:  I=    7 I1=    7 IA=  1 C=   1.0 OKShel=T
                                                  S
                                                  1
 StAtR1:  I=    8 I1=    8 IA=  1 C=   1.0 OKShel=T
                                                  S
                                                  1
 StAtR1:  I=    9 I1=    9 IA=  1 C=   1.0 OKShel=T
                                                  S
                                                  1
 StAtR1:  I=   10 I1=   10 IA=  1 C=   1.0 OKShel=T
                                                  S
                                                  1
          I=    1 IA=  6 I1=    1 NAtG=23 NE=   6.000 C=   6.000 Err= 1.75D-11
          I=    2 IA=  7 I1=    2 NAtG=22 NE=   7.000 C=   7.000 Err= 6.08D-13
          I=    3 IA=  7 I1=    3 NAtG=22 NE=   7.000 C=   7.000 Err= 6.08D-13
          I=    4 IA=  7 I1=    4 NAtG=22 NE=   7.000 C=   7.000 Err= 6.08D-13
          I=    5 IA=  1 I1=    5 NAtG=20 NE=   1.000 C=   1.000 Err= 2.80D-12
          I=    6 IA=  1 I1=    6 NAtG=20 NE=   1.000 C=   1.000 Err= 2.80D-12
          I=    7 IA=  1 I1=    7 NAtG=20 NE=   1.000 C=   1.000 Err= 2.80D-12
          I=    8 IA=  1 I1=    8 NAtG=20 NE=   1.000 C=   1.000 Err= 2.80D-12
          I=    9 IA=  1 I1=    9 NAtG=20 NE=   1.000 C=   1.000 Err= 2.80D-12
          I=   10 IA=  1 I1=   10 NAtG=20 NE=   1.000 C=   1.000 Err= 2.80D-12
 Pruned (  99, 590) grid will be used in numerical quadrature.
 IPart=  0 IRanGd=          0 ScrnBf=T ScrnGd=T RCrit=4.00D+00 DoMicB=T.
 CutRad = 1000.00    CtRdIn =    0.00    XCrit =  15.00   ICut = 0
 Pruned (  99, 590) grid will be used in numerical quadrature.
 Pruned (  99, 590) grid will be used in numerical quadrature.
 IPart=  1 IRanGd=          0 ScrnBf=T ScrnGd=T RCrit=4.00D+00 DoMicB=T.
 Pruned (  99, 590) grid will be used in numerical quadrature.
 Pruned (  99, 590) grid will be used in numerical quadrature.
 IPart= 12 IRanGd=          0 ScrnBf=T ScrnGd=T RCrit=4.00D+00 DoMicB=T.
 CutRad = 1000.00    CtRdIn =    0.00    XCrit =  15.00   ICut = 0
 Pruned (  99, 590) grid will be used in numerical quadrature.
 CutRad = 1000.00    CtRdIn =    0.00    XCrit =  15.00   ICut = 0
 Pruned (  99, 590) grid will be used in numerical quadrature.
 IPart= 11 IRanGd=          0 ScrnBf=T ScrnGd=T RCrit=4.00D+00 DoMicB=T.
 Pruned (  99, 590) grid will be used in numerical quadrature.
 IPart=  2 IRanGd=          0 ScrnBf=T ScrnGd=T RCrit=4.00D+00 DoMicB=T.
 CutRad = 1000.00    CtRdIn =    0.00    XCrit =  15.00   ICut = 0
 CutRad = 1000.00    CtRdIn =    0.00    XCrit =  15.00   ICut = 0
 IPart= 13 IRanGd=          0 ScrnBf=T ScrnGd=T RCrit=4.00D+00 DoMicB=T.
 Pruned (  99, 590) grid will be used in numerical quadrature.
 Pruned (  99, 590) grid will be used in numerical quadrature.
 CutRad = 1000.00    CtRdIn =    0.00    XCrit =  15.00   ICut = 0
 IPart= 14 IRanGd=          0 ScrnBf=T ScrnGd=T RCrit=4.00D+00 DoMicB=T.
 CutRad = 1000.00    CtRdIn =    0.00    XCrit =  15.00   ICut = 0
 IPart=  0 Atom number   1 atomic number  6 has       23114 grid points.
 IPart= 15 IRanGd=          0 ScrnBf=T ScrnGd=T RCrit=4.00D+00 DoMicB=T.
 Pruned (  99, 590) grid will be used in numerical quadrature.
 Pruned (  99, 590) grid will be used in numerical quadrature.
 IPart=  0 Atom   1 batch    1 overlaps   10 atoms,   110 shells and    10 DB shells.   NGrid=      2408
 Pruned (  99, 590) grid will be used in numerical quadrature.
 IPart=  9 IRanGd=          0 ScrnBf=T ScrnGd=T RCrit=4.00D+00 DoMicB=T.
 IPart=  6 IRanGd=          0 ScrnBf=T ScrnGd=T RCrit=4.00D+00 DoMicB=T.
 CutRad = 1000.00    CtRdIn =    0.00    XCrit =  15.00   ICut = 0
 Symmetry reduced    86 angular points to    86 for atom    1.
 Pruned (  99, 590) grid will be used in numerical quadrature.
 Pruned (  99, 590) grid will be used in numerical quadrature.
 IPart=  5 IRanGd=          0 ScrnBf=T ScrnGd=T RCrit=4.00D+00 DoMicB=T.
 IPart=  8 IRanGd=          0 ScrnBf=T ScrnGd=T RCrit=4.00D+00 DoMicB=T.
 IPart=  7 IRanGd=          0 ScrnBf=T ScrnGd=T RCrit=4.00D+00 DoMicB=T.
 CutRad = 1000.00    CtRdIn =    0.00    XCrit =  15.00   ICut = 0
 CutRad = 1000.00    CtRdIn =    0.00    XCrit =  15.00   ICut = 0
 CutRad = 1000.00    CtRdIn =    0.00    XCrit =  15.00   ICut = 0
 CutRad = 1000.00    CtRdIn =    0.00    XCrit =  15.00   ICut = 0
 CutRad = 1000.00    CtRdIn =    0.00    XCrit =  15.00   ICut = 0
 Pruned (  99, 590) grid will be used in numerical quadrature.
 Pruned (  99, 590) grid will be used in numerical quadrature.
 IPart= 10 IRanGd=          0 ScrnBf=T ScrnGd=T RCrit=4.00D+00 DoMicB=T.
 IPart=  4 IRanGd=          0 ScrnBf=T ScrnGd=T RCrit=4.00D+00 DoMicB=T.
 CutRad = 1000.00    CtRdIn =    0.00    XCrit =  15.00   ICut = 0
 CutRad = 1000.00    CtRdIn =    0.00    XCrit =  15.00   ICut = 0
 IPart=  3 IRanGd=          0 ScrnBf=T ScrnGd=T RCrit=4.00D+00 DoMicB=T.
 CutRad = 1000.00    CtRdIn =    0.00    XCrit =  15.00   ICut = 0
 Pruned (  99, 590) grid will be used in numerical quadrature.
 IPart= 12 Atom number   1 atomic number  6 has       23114 grid points.
 Pruned (  99, 590) grid will be used in numerical quadrature.
 IPart= 12 Atom   1 batch    2 overlaps   10 atoms,   110 shells and    10 DB shells.   NGrid=      2522
 IPart=  1 Atom number   1 atomic number  6 has       23114 grid points.
 Symmetry reduced   194 angular points to   194 for atom    1.
 IPart=  1 Atom   1 batch    3 overlaps   10 atoms,   110 shells and    10 DB shells.   NGrid=      2114
 Symmetry reduced   302 angular points to   302 for atom    1.
 Pruned (  99, 590) grid will be used in numerical quadrature.
 Pruned (  99, 590) grid will be used in numerical quadrature.
 IPart=  2 Atom number   1 atomic number  6 has       23114 grid points.
 IPart= 11 Atom number   1 atomic number  6 has       23114 grid points.
 IPart=  2 Atom   1 batch    4 overlaps   10 atoms,   110 shells and    10 DB shells.   NGrid=      1180
 Pruned (  99, 590) grid will be used in numerical quadrature.
 Symmetry reduced   590 angular points to   590 for atom    1.
 Pruned (  99, 590) grid will be used in numerical quadrature.
 IPart= 13 Atom number   1 atomic number  6 has       23114 grid points.
 IPart= 14 Atom number   1 atomic number  6 has       23114 grid points.
 IPart= 13 Atom   1 batch    6 overlaps   10 atoms,   110 shells and    10 DB shells.   NGrid=      1180
 IPart= 14 Atom   1 batch    7 overlaps   10 atoms,   110 shells and    10 DB shells.   NGrid=      1180
 IPart= 11 Atom   1 batch    5 overlaps   10 atoms,   110 shells and    10 DB shells.   NGrid=      1180
 Symmetry reduced   590 angular points to   590 for atom    1.
 Symmetry reduced   590 angular points to   590 for atom    1.
 Symmetry reduced   590 angular points to   590 for atom    1.
 Pruned (  99, 590) grid will be used in numerical quadrature.
 IPart=  6 Atom number   1 atomic number  6 has       23114 grid points.
 IPart=  6 Atom   1 batch    8 overlaps   10 atoms,   110 shells and    10 DB shells.   NGrid=      1180
 Symmetry reduced   590 angular points to   590 for atom    1.
 Pruned (  99, 590) grid will be used in numerical quadrature.
 Pruned (  99, 590) grid will be used in numerical quadrature.
 Pruned (  99, 590) grid will be used in numerical quadrature.
 IPart= 15 Atom number   1 atomic number  6 has       23114 grid points.
 Pruned (  99, 590) grid will be used in numerical quadrature.
 IPart=  9 Atom number   1 atomic number  6 has       23114 grid points.
 IPart=  8 Atom number   1 atomic number  6 has       23114 grid points.
 IPart=  9 Atom   1 batch    9 overlaps   10 atoms,   110 shells and    10 DB shells.   NGrid=      1180
 IPart=  8 Atom   1 batch   11 overlaps   10 atoms,   109 shells and    10 DB shells.   NGrid=      1180
 IPart=  5 Atom number   1 atomic number  6 has       23114 grid points.
 Symmetry reduced   590 angular points to   590 for atom    1.
 Pruned (  99, 590) grid will be used in numerical quadrature.
 Pruned (  99, 590) grid will be used in numerical quadrature.
 IPart=  4 Atom number   1 atomic number  6 has       23114 grid points.
 Symmetry reduced   590 angular points to   590 for atom    1.
 IPart=  4 Atom   1 batch   13 overlaps   10 atoms,   109 shells and    10 DB shells.   NGrid=       604
 IPart=  3 Atom number   1 atomic number  6 has       23114 grid points.
 IPart=  5 Atom   1 batch   12 overlaps   10 atoms,   109 shells and    10 DB shells.   NGrid=       590
 Symmetry reduced   302 angular points to   302 for atom    1.
 IPart=  3 Atom   1 batch   15 overlaps   10 atoms,   103 shells and    10 DB shells.   NGrid=       604
 Pruned (  99, 590) grid will be used in numerical quadrature.
 Symmetry reduced   302 angular points to   302 for atom    1.
 IPart= 10 Atom number   1 atomic number  6 has       23114 grid points.
 Symmetry reduced   590 angular points to   590 for atom    1.
 IPart= 15 Atom   1 batch   10 overlaps   10 atoms,   110 shells and    10 DB shells.   NGrid=      1180
 IPart= 10 Atom   1 batch   14 overlaps   10 atoms,   106 shells and    10 DB shells.   NGrid=       604
 Symmetry reduced   590 angular points to   590 for atom    1.
 Symmetry reduced   302 angular points to   302 for atom    1.
 Pruned (  99, 590) grid will be used in numerical quadrature.
 IPart=  7 Atom number   1 atomic number  6 has       23114 grid points.
 IPart=  7 Atom   1 batch   16 overlaps   10 atoms,    93 shells and    10 DB shells.   NGrid=       604
 Symmetry reduced   302 angular points to   302 for atom    1.
 IPart=  7 Atom   1 batch   17 overlaps   10 atoms,    78 shells and    10 DB shells.   NGrid=       604
 IPart=  3 Atom   1 batch   18 overlaps   10 atoms,    60 shells and    10 DB shells.   NGrid=       604
 IPart= 10 Atom   1 batch   19 overlaps   10 atoms,    44 shells and    10 DB shells.   NGrid=       604
 IPart=  3 Atom   1 batch   20 overlaps   10 atoms,    27 shells and     6 DB shells.   NGrid=       604
 IPart=  7 Atom   1 batch   21 overlaps   10 atoms,    14 shells and     0 DB shells.   NGrid=       604
 IPart=  3 Atom   1 batch   22 overlaps   10 atoms,     6 shells and     0 DB shells.   NGrid=       604
 Pruned (  99, 590) grid will be used in numerical quadrature.
 IPart= 10 Atom number   2 atomic number  7 has       23416 grid points.
 IPart= 10 Atom   2 batch    1 overlaps   10 atoms,   104 shells and    10 DB shells.   NGrid=      2408
 Symmetry reduced    86 angular points to    86 for atom    2.
 Pruned (  99, 590) grid will be used in numerical quadrature.
 IPart=  5 Atom number   2 atomic number  7 has       23416 grid points.
 IPart=  5 Atom   2 batch    2 overlaps   10 atoms,   106 shells and    10 DB shells.   NGrid=      2522
 Pruned (  99, 590) grid will be used in numerical quadrature.
 Symmetry reduced   194 angular points to   194 for atom    2.
 IPart=  3 Atom number   2 atomic number  7 has       23416 grid points.
 IPart=  3 Atom   2 batch    3 overlaps   10 atoms,   108 shells and    10 DB shells.   NGrid=      2114
 Pruned (  99, 590) grid will be used in numerical quadrature.
 Symmetry reduced   302 angular points to   302 for atom    2.
 IPart=  7 Atom number   2 atomic number  7 has       23416 grid points.
 IPart=  7 Atom   2 batch    4 overlaps   10 atoms,   108 shells and    10 DB shells.   NGrid=      1180
 Symmetry reduced   590 angular points to   590 for atom    2.
 Pruned (  99, 590) grid will be used in numerical quadrature.
 IPart=  4 Atom number   2 atomic number  7 has       23416 grid points.
 IPart=  4 Atom   2 batch    5 overlaps   10 atoms,   108 shells and    10 DB shells.   NGrid=      1180
 Symmetry reduced   590 angular points to   590 for atom    2.
 Pruned (  99, 590) grid will be used in numerical quadrature.
 IPart=  8 Atom number   2 atomic number  7 has       23416 grid points.
 IPart=  8 Atom   2 batch    6 overlaps   10 atoms,   110 shells and    10 DB shells.   NGrid=      1180
 Symmetry reduced   590 angular points to   590 for atom    2.
 Pruned (  99, 590) grid will be used in numerical quadrature.
 IPart= 15 Atom number   2 atomic number  7 has       23416 grid points.
 IPart= 15 Atom   2 batch    7 overlaps   10 atoms,   110 shells and    10 DB shells.   NGrid=      1180
 Symmetry reduced   590 angular points to   590 for atom    2.
 Pruned (  99, 590) grid will be used in numerical quadrature.
 IPart= 13 Atom number   2 atomic number  7 has       23416 grid points.
 IPart= 13 Atom   2 batch    8 overlaps   10 atoms,   110 shells and    10 DB shells.   NGrid=      1180
 Symmetry reduced   590 angular points to   590 for atom    2.
 Pruned (  99, 590) grid will be used in numerical quadrature.
 Pruned (  99, 590) grid will be used in numerical quadrature.
 IPart=  9 Atom number   2 atomic number  7 has       23416 grid points.
 IPart= 11 Atom number   2 atomic number  7 has       23416 grid points.
 IPart=  9 Atom   2 batch    9 overlaps   10 atoms,   110 shells and    10 DB shells.   NGrid=      1180
 IPart= 11 Atom   2 batch   10 overlaps   10 atoms,   110 shells and    10 DB shells.   NGrid=      1180
 Pruned (  99, 590) grid will be used in numerical quadrature.
 Symmetry reduced   590 angular points to   590 for atom    2.
 IPart=  2 Atom number   2 atomic number  7 has       23416 grid points.
 Symmetry reduced   590 angular points to   590 for atom    2.
 IPart=  2 Atom   2 batch   11 overlaps   10 atoms,   110 shells and    10 DB shells.   NGrid=      1180
 Pruned (  99, 590) grid will be used in numerical quadrature.
 Symmetry reduced   590 angular points to   590 for atom    2.
 IPart= 14 Atom number   2 atomic number  7 has       23416 grid points.
 IPart= 14 Atom   2 batch   12 overlaps   10 atoms,   109 shells and    10 DB shells.   NGrid=       590
 Symmetry reduced   590 angular points to   590 for atom    2.
 Pruned (  99, 590) grid will be used in numerical quadrature.
 IPart=  6 Atom number   2 atomic number  7 has       23416 grid points.
 IPart=  6 Atom   2 batch   13 overlaps   10 atoms,   109 shells and    10 DB shells.   NGrid=       604
 Symmetry reduced   302 angular points to   302 for atom    2.
 IPart=  7 Atom   2 batch   14 overlaps   10 atoms,   109 shells and    10 DB shells.   NGrid=       604
 Symmetry reduced   302 angular points to   302 for atom    2.
 IPart=  4 Atom   2 batch   15 overlaps   10 atoms,   107 shells and    10 DB shells.   NGrid=       604
 Symmetry reduced   302 angular points to   302 for atom    2.
 IPart= 14 Atom   2 batch   16 overlaps   10 atoms,   104 shells and    10 DB shells.   NGrid=       604
 Symmetry reduced   302 angular points to   302 for atom    2.
 IPart=  6 Atom   2 batch   17 overlaps   10 atoms,    98 shells and    10 DB shells.   NGrid=       604
 Pruned (  99, 590) grid will be used in numerical quadrature.
 IPart=  1 Atom number   2 atomic number  7 has       23416 grid points.
 IPart=  1 Atom   2 batch   18 overlaps   10 atoms,    83 shells and    10 DB shells.   NGrid=       604
 Symmetry reduced   302 angular points to   302 for atom    2.
 IPart= 14 Atom   2 batch   19 overlaps   10 atoms,    62 shells and    10 DB shells.   NGrid=       604
 IPart=  6 Atom   2 batch   20 overlaps   10 atoms,    41 shells and     9 DB shells.   NGrid=       604
 IPart=  6 Atom   2 batch   21 overlaps   10 atoms,    23 shells and     4 DB shells.   NGrid=       604
 IPart=  8 Atom   2 batch   22 overlaps   10 atoms,    12 shells and     0 DB shells.   NGrid=       604
 Symmetry reduced   302 angular points to   302 for atom    2.
 IPart= 14 Atom   2 batch   23 overlaps   10 atoms,     4 shells and     0 DB shells.   NGrid=       302
 Pruned (  99, 590) grid will be used in numerical quadrature.
 Pruned (  99, 590) grid will be used in numerical quadrature.
 IPart=  4 Atom number   3 atomic number  7 has       23416 grid points.
 IPart=  6 Atom number   3 atomic number  7 has       23416 grid points.
 IPart=  4 Atom   3 batch    1 overlaps   10 atoms,   104 shells and    10 DB shells.   NGrid=      2408
 IPart=  6 Atom   3 batch    2 overlaps   10 atoms,   106 shells and    10 DB shells.   NGrid=      2522
 Symmetry reduced    86 angular points to    86 for atom    3.
 Pruned (  99, 590) grid will be used in numerical quadrature.
 Symmetry reduced   194 angular points to   194 for atom    3.
 IPart=  8 Atom number   3 atomic number  7 has       23416 grid points.
 IPart=  8 Atom   3 batch    3 overlaps   10 atoms,   108 shells and    10 DB shells.   NGrid=      2114
 Symmetry reduced   302 angular points to   302 for atom    3.
 Pruned (  99, 590) grid will be used in numerical quadrature.
 IPart= 14 Atom number   3 atomic number  7 has       23416 grid points.
 IPart= 14 Atom   3 batch    4 overlaps   10 atoms,   108 shells and    10 DB shells.   NGrid=      1180
 Symmetry reduced   590 angular points to   590 for atom    3.
 Pruned (  99, 590) grid will be used in numerical quadrature.
 IPart=  1 Atom number   3 atomic number  7 has       23416 grid points.
 IPart=  1 Atom   3 batch    5 overlaps   10 atoms,   108 shells and    10 DB shells.   NGrid=      1180
 Symmetry reduced   590 angular points to   590 for atom    3.
 Pruned (  99, 590) grid will be used in numerical quadrature.
 IPart=  7 Atom number   3 atomic number  7 has       23416 grid points.
 IPart=  7 Atom   3 batch    6 overlaps   10 atoms,   110 shells and    10 DB shells.   NGrid=      1180
 Symmetry reduced   590 angular points to   590 for atom    3.
 Pruned (  99, 590) grid will be used in numerical quadrature.
 IPart=  0 Atom number   2 atomic number  7 has       23416 grid points.
 Pruned (  99, 590) grid will be used in numerical quadrature.
 IPart=  0 Atom number   3 atomic number  7 has       23416 grid points.
 IPart=  0 Atom   3 batch    7 overlaps   10 atoms,   110 shells and    10 DB shells.   NGrid=      1180
 Symmetry reduced   590 angular points to   590 for atom    3.
 Pruned (  99, 590) grid will be used in numerical quadrature.
 IPart=  2 Atom number   3 atomic number  7 has       23416 grid points.
 IPart=  2 Atom   3 batch    8 overlaps   10 atoms,   110 shells and    10 DB shells.   NGrid=      1180
 Symmetry reduced   590 angular points to   590 for atom    3.
 Pruned (  99, 590) grid will be used in numerical quadrature.
 IPart=  9 Atom number   3 atomic number  7 has       23416 grid points.
 IPart=  9 Atom   3 batch    9 overlaps   10 atoms,   110 shells and    10 DB shells.   NGrid=      1180
 Symmetry reduced   590 angular points to   590 for atom    3.
 Pruned (  99, 590) grid will be used in numerical quadrature.
 Pruned (  99, 590) grid will be used in numerical quadrature.
 IPart= 13 Atom number   3 atomic number  7 has       23416 grid points.
 IPart= 15 Atom number   3 atomic number  7 has       23416 grid points.
 IPart= 13 Atom   3 batch   10 overlaps   10 atoms,   110 shells and    10 DB shells.   NGrid=      1180
 IPart= 15 Atom   3 batch   11 overlaps   10 atoms,   110 shells and    10 DB shells.   NGrid=      1180
 Symmetry reduced   590 angular points to   590 for atom    3.
 Symmetry reduced   590 angular points to   590 for atom    3.
 Pruned (  99, 590) grid will be used in numerical quadrature.
 IPart= 11 Atom number   3 atomic number  7 has       23416 grid points.
 IPart= 11 Atom   3 batch   12 overlaps   10 atoms,   109 shells and    10 DB shells.   NGrid=       590
 Symmetry reduced   590 angular points to   590 for atom    3.
 Pruned (  99, 590) grid will be used in numerical quadrature.
 IPart= 12 Atom number   2 atomic number  7 has       23416 grid points.
 Pruned (  99, 590) grid will be used in numerical quadrature.
 IPart= 12 Atom number   3 atomic number  7 has       23416 grid points.
 IPart= 12 Atom   3 batch   13 overlaps   10 atoms,   109 shells and    10 DB shells.   NGrid=       604
 Symmetry reduced   302 angular points to   302 for atom    3.
 Pruned (  99, 590) grid will be used in numerical quadrature.
 IPart= 10 Atom number   3 atomic number  7 has       23416 grid points.
 IPart= 10 Atom   3 batch   14 overlaps   10 atoms,   109 shells and    10 DB shells.   NGrid=       604
 Symmetry reduced   302 angular points to   302 for atom    3.
 Pruned (  99, 590) grid will be used in numerical quadrature.
 IPart=  3 Atom number   3 atomic number  7 has       23416 grid points.
 IPart=  3 Atom   3 batch   15 overlaps   10 atoms,   107 shells and    10 DB shells.   NGrid=       604
 Symmetry reduced   302 angular points to   302 for atom    3.
 Pruned (  99, 590) grid will be used in numerical quadrature.
 IPart=  5 Atom number   3 atomic number  7 has       23416 grid points.
 IPart=  5 Atom   3 batch   16 overlaps   10 atoms,   104 shells and    10 DB shells.   NGrid=       604
 Symmetry reduced   302 angular points to   302 for atom    3.
 IPart= 11 Atom   3 batch   17 overlaps   10 atoms,    98 shells and    10 DB shells.   NGrid=       604
 Symmetry reduced   302 angular points to   302 for atom    3.
 IPart= 10 Atom   3 batch   18 overlaps   10 atoms,    83 shells and    10 DB shells.   NGrid=       604
 IPart=  3 Atom   3 batch   19 overlaps   10 atoms,    62 shells and    10 DB shells.   NGrid=       604
 IPart= 12 Atom   3 batch   20 overlaps   10 atoms,    41 shells and     9 DB shells.   NGrid=       604
 IPart= 12 Atom   3 batch   21 overlaps   10 atoms,    23 shells and     4 DB shells.   NGrid=       604
 IPart=  5 Atom   3 batch   22 overlaps   10 atoms,    12 shells and     0 DB shells.   NGrid=       604
 IPart=  3 Atom   3 batch   23 overlaps   10 atoms,     4 shells and     0 DB shells.   NGrid=       302
 Pruned (  99, 590) grid will be used in numerical quadrature.
 IPart=  3 Atom number   4 atomic number  7 has       23416 grid points.
 IPart=  3 Atom   4 batch    1 overlaps   10 atoms,   104 shells and    10 DB shells.   NGrid=      2408
 Symmetry reduced    86 angular points to    86 for atom    4.
 Pruned (  99, 590) grid will be used in numerical quadrature.
 IPart= 12 Atom number   4 atomic number  7 has       23416 grid points.
 IPart= 12 Atom   4 batch    2 overlaps   10 atoms,   106 shells and    10 DB shells.   NGrid=      2522
 Symmetry reduced   194 angular points to   194 for atom    4.
 Pruned (  99, 590) grid will be used in numerical quadrature.
 IPart=  5 Atom number   4 atomic number  7 has       23416 grid points.
 IPart=  5 Atom   4 batch    3 overlaps   10 atoms,   108 shells and    10 DB shells.   NGrid=      2114
 Symmetry reduced   302 angular points to   302 for atom    4.
 Pruned (  99, 590) grid will be used in numerical quadrature.
 IPart= 11 Atom number   4 atomic number  7 has       23416 grid points.
 IPart= 11 Atom   4 batch    4 overlaps   10 atoms,   108 shells and    10 DB shells.   NGrid=      1180
 Symmetry reduced   590 angular points to   590 for atom    4.
 Pruned (  99, 590) grid will be used in numerical quadrature.
 IPart= 10 Atom number   4 atomic number  7 has       23416 grid points.
 IPart= 10 Atom   4 batch    5 overlaps   10 atoms,   108 shells and    10 DB shells.   NGrid=      1180
 Symmetry reduced   590 angular points to   590 for atom    4.
 Pruned (  99, 590) grid will be used in numerical quadrature.
 IPart= 14 Atom number   4 atomic number  7 has       23416 grid points.
 IPart= 14 Atom   4 batch    6 overlaps   10 atoms,   110 shells and    10 DB shells.   NGrid=      1180
 Symmetry reduced   590 angular points to   590 for atom    4.
 Pruned (  99, 590) grid will be used in numerical quadrature.
 IPart=  1 Atom number   4 atomic number  7 has       23416 grid points.
 IPart=  1 Atom   4 batch    7 overlaps   10 atoms,   110 shells and    10 DB shells.   NGrid=      1180
 Symmetry reduced   590 angular points to   590 for atom    4.
 Pruned (  99, 590) grid will be used in numerical quadrature.
 IPart=  7 Atom number   4 atomic number  7 has       23416 grid points.
 IPart=  7 Atom   4 batch    8 overlaps   10 atoms,   110 shells and    10 DB shells.   NGrid=      1180
 Symmetry reduced   590 angular points to   590 for atom    4.
 Pruned (  99, 590) grid will be used in numerical quadrature.
 IPart=  0 Atom number   4 atomic number  7 has       23416 grid points.
 IPart=  0 Atom   4 batch    9 overlaps   10 atoms,   110 shells and    10 DB shells.   NGrid=      1180
 Pruned (  99, 590) grid will be used in numerical quadrature.
 Symmetry reduced   590 angular points to   590 for atom    4.
 IPart=  9 Atom number   4 atomic number  7 has       23416 grid points.
 IPart=  9 Atom   4 batch   10 overlaps   10 atoms,   110 shells and    10 DB shells.   NGrid=      1180
 Symmetry reduced   590 angular points to   590 for atom    4.
 Pruned (  99, 590) grid will be used in numerical quadrature.
 IPart= 15 Atom number   4 atomic number  7 has       23416 grid points.
 IPart= 15 Atom   4 batch   11 overlaps   10 atoms,   110 shells and    10 DB shells.   NGrid=      1180
 Symmetry reduced   590 angular points to   590 for atom    4.
 Pruned (  99, 590) grid will be used in numerical quadrature.
 IPart=  2 Atom number   4 atomic number  7 has       23416 grid points.
 IPart=  2 Atom   4 batch   12 overlaps   10 atoms,   109 shells and    10 DB shells.   NGrid=       590
 Symmetry reduced   590 angular points to   590 for atom    4.
 Pruned (  99, 590) grid will be used in numerical quadrature.
 IPart= 13 Atom number   4 atomic number  7 has       23416 grid points.
 IPart= 13 Atom   4 batch   13 overlaps   10 atoms,   109 shells and    10 DB shells.   NGrid=       604
 Symmetry reduced   302 angular points to   302 for atom    4.
 IPart=  2 Atom   4 batch   14 overlaps   10 atoms,   109 shells and    10 DB shells.   NGrid=       604
 Symmetry reduced   302 angular points to   302 for atom    4.
 IPart= 13 Atom   4 batch   15 overlaps   10 atoms,   107 shells and    10 DB shells.   NGrid=       604
 Pruned (  99, 590) grid will be used in numerical quadrature.
 IPart=  8 Atom number   4 atomic number  7 has       23416 grid points.
 IPart=  8 Atom   4 batch   16 overlaps   10 atoms,   104 shells and    10 DB shells.   NGrid=       604
 Symmetry reduced   302 angular points to   302 for atom    4.
 Pruned (  99, 590) grid will be used in numerical quadrature.
 IPart=  4 Atom number   4 atomic number  7 has       23416 grid points.
 IPart=  4 Atom   4 batch   17 overlaps   10 atoms,    98 shells and    10 DB shells.   NGrid=       604
 Symmetry reduced   302 angular points to   302 for atom    4.
 IPart= 11 Atom   4 batch   18 overlaps   10 atoms,    83 shells and    10 DB shells.   NGrid=       604
 Symmetry reduced   302 angular points to   302 for atom    4.
 IPart= 10 Atom   4 batch   19 overlaps   10 atoms,    62 shells and    10 DB shells.   NGrid=       604
 Pruned (  99, 590) grid will be used in numerical quadrature.
 Symmetry reduced   302 angular points to   302 for atom    4.
 IPart=  6 Atom number   4 atomic number  7 has       23416 grid points.
 IPart=  6 Atom   4 batch   20 overlaps   10 atoms,    41 shells and     9 DB shells.   NGrid=       604
 Symmetry reduced   302 angular points to   302 for atom    4.
 IPart=  6 Atom   4 batch   21 overlaps   10 atoms,    23 shells and     4 DB shells.   NGrid=       604
 IPart= 11 Atom   4 batch   22 overlaps   10 atoms,    12 shells and     0 DB shells.   NGrid=       604
 IPart= 10 Atom   4 batch   23 overlaps   10 atoms,     4 shells and     0 DB shells.   NGrid=       302
 Pruned (  99, 590) grid will be used in numerical quadrature.
 IPart=  6 Atom number   5 atomic number  1 has       23466 grid points.
 IPart=  6 Atom   5 batch    1 overlaps   10 atoms,    97 shells and    10 DB shells.   NGrid=      2838
 Symmetry reduced    86 angular points to    86 for atom    5.
 Pruned (  99, 590) grid will be used in numerical quadrature.
 IPart= 14 Atom number   5 atomic number  1 has       23466 grid points.
 IPart= 14 Atom   5 batch    2 overlaps   10 atoms,    99 shells and    10 DB shells.   NGrid=      1552
 Symmetry reduced   194 angular points to   194 for atom    5.
 Pruned (  99, 590) grid will be used in numerical quadrature.
 IPart= 10 Atom number   5 atomic number  1 has       23466 grid points.
 IPart= 10 Atom   5 batch    3 overlaps   10 atoms,   102 shells and    10 DB shells.   NGrid=      2416
 Symmetry reduced   302 angular points to   302 for atom    5.
 Pruned (  99, 590) grid will be used in numerical quadrature.
 IPart=  4 Atom number   5 atomic number  1 has       23466 grid points.
 IPart=  4 Atom   5 batch    4 overlaps   10 atoms,   103 shells and    10 DB shells.   NGrid=      1180
 Symmetry reduced   590 angular points to   590 for atom    5.
 Pruned (  99, 590) grid will be used in numerical quadrature.
 IPart= 11 Atom number   5 atomic number  1 has       23466 grid points.
 IPart= 11 Atom   5 batch    5 overlaps   10 atoms,   106 shells and    10 DB shells.   NGrid=      1180
 Symmetry reduced   590 angular points to   590 for atom    5.
 Pruned (  99, 590) grid will be used in numerical quadrature.
 IPart=  1 Atom number   5 atomic number  1 has       23466 grid points.
 IPart=  1 Atom   5 batch    6 overlaps   10 atoms,   106 shells and    10 DB shells.   NGrid=      1180
 Symmetry reduced   590 angular points to   590 for atom    5.
 Pruned (  99, 590) grid will be used in numerical quadrature.
 IPart= 15 Atom number   5 atomic number  1 has       23466 grid points.
 IPart= 15 Atom   5 batch    7 overlaps   10 atoms,   107 shells and    10 DB shells.   NGrid=      1180
 Symmetry reduced   590 angular points to   590 for atom    5.
 Pruned (  99, 590) grid will be used in numerical quadrature.
 IPart= 13 Atom number   5 atomic number  1 has       23466 grid points.
 IPart= 13 Atom   5 batch    8 overlaps   10 atoms,   108 shells and    10 DB shells.   NGrid=      1180
 Symmetry reduced   590 angular points to   590 for atom    5.
 Pruned (  99, 590) grid will be used in numerical quadrature.
 Pruned (  99, 590) grid will be used in numerical quadrature.
 IPart=  8 Atom number   5 atomic number  1 has       23466 grid points.
 IPart=  7 Atom number   5 atomic number  1 has       23466 grid points.
 IPart=  8 Atom   5 batch    9 overlaps   10 atoms,   109 shells and    10 DB shells.   NGrid=      1180
 IPart=  7 Atom   5 batch   10 overlaps   10 atoms,   109 shells and    10 DB shells.   NGrid=      1180
 Symmetry reduced   590 angular points to   590 for atom    5.
 Symmetry reduced   590 angular points to   590 for atom    5.
 Pruned (  99, 590) grid will be used in numerical quadrature.
 IPart=  2 Atom number   5 atomic number  1 has       23466 grid points.
 IPart=  2 Atom   5 batch   11 overlaps   10 atoms,   110 shells and    10 DB shells.   NGrid=      1180
 Symmetry reduced   590 angular points to   590 for atom    5.
 Pruned (  99, 590) grid will be used in numerical quadrature.
 IPart=  0 Atom number   5 atomic number  1 has       23466 grid points.
 IPart=  0 Atom   5 batch   12 overlaps   10 atoms,   110 shells and    10 DB shells.   NGrid=      1180
 Symmetry reduced   590 angular points to   590 for atom    5.
 Pruned (  99, 590) grid will be used in numerical quadrature.
 IPart=  9 Atom number   5 atomic number  1 has       23466 grid points.
 IPart=  9 Atom   5 batch   13 overlaps   10 atoms,   110 shells and    10 DB shells.   NGrid=       604
 Symmetry reduced   302 angular points to   302 for atom    5.
 Pruned (  99, 590) grid will be used in numerical quadrature.
 IPart=  3 Atom number   5 atomic number  1 has       23466 grid points.
 IPart=  3 Atom   5 batch   14 overlaps   10 atoms,   109 shells and    10 DB shells.   NGrid=       604
 Symmetry reduced   302 angular points to   302 for atom    5.
 Pruned (  99, 590) grid will be used in numerical quadrature.
 IPart=  5 Atom number   5 atomic number  1 has       23466 grid points.
 IPart=  5 Atom   5 batch   15 overlaps   10 atoms,   106 shells and    10 DB shells.   NGrid=       604
 Symmetry reduced   302 angular points to   302 for atom    5.
 IPart=  9 Atom   5 batch   16 overlaps   10 atoms,   101 shells and    10 DB shells.   NGrid=       604
 Pruned (  99, 590) grid will be used in numerical quadrature.
 IPart= 12 Atom number   5 atomic number  1 has       23466 grid points.
 IPart= 12 Atom   5 batch   17 overlaps   10 atoms,    92 shells and    10 DB shells.   NGrid=       604
 Symmetry reduced   302 angular points to   302 for atom    5.
 IPart=  9 Atom   5 batch   18 overlaps   10 atoms,    72 shells and    10 DB shells.   NGrid=       604
 IPart=  4 Atom   5 batch   19 overlaps   10 atoms,    50 shells and     9 DB shells.   NGrid=       604
 Symmetry reduced   302 angular points to   302 for atom    5.
 IPart=  3 Atom   5 batch   20 overlaps   10 atoms,    29 shells and     5 DB shells.   NGrid=       604
[...]
 2763 Fit       0.133710
 2764 Fit       0.136341
 2765 Fit       0.138760
 2766 Fit       0.139781
 2767 Fit       0.133725
 2768 Fit       0.131355
 2769 Fit       0.129060
 2770 Fit       0.127214
 2771 Fit       0.126174
 2772 Fit       0.126174
 2773 Fit       0.127214
 2774 Fit       0.129060
 2775 Fit       0.131355
 2776 Fit       0.133725
 2777 Fit       0.135825
 2778 Fit       0.135825
 2779 Fit       0.131032
 2780 Fit       0.128722
 2781 Fit       0.126888
 2782 Fit       0.126183
 2783 Fit       0.126888
 2784 Fit       0.128722
 2785 Fit       0.131032
 2786 Fit       0.133174
 2787 Fit       0.133174
 2788 Fit       0.129449
 2789 Fit       0.127440
 2790 Fit       0.127440
 2791 Fit       0.129449
 2792 Fit       0.131376
 2793 Fit       0.131376
 2794 Fit       0.128927
 2795 Fit       0.128927
 2796 Fit       0.127440
 2797 Fit       0.129449
 2798 Fit       0.131376
 2799 Fit       0.131376
 2800 Fit       0.129449
 2801 Fit       0.127440
 2802 Fit       0.126888
 2803 Fit       0.128722
 2804 Fit       0.131032
 2805 Fit       0.133174
 2806 Fit       0.133174
 2807 Fit       0.131032
 2808 Fit       0.128722
 2809 Fit       0.126888
 2810 Fit       0.126183
 2811 Fit       0.127214
 2812 Fit       0.129060
 2813 Fit       0.131355
 2814 Fit       0.133725
 2815 Fit       0.135825
 2816 Fit       0.135825
 2817 Fit       0.133725
 2818 Fit       0.131355
 2819 Fit       0.129060
 2820 Fit       0.127214
 2821 Fit       0.126174
 2822 Fit       0.126174
 2823 Fit       0.128332
 2824 Fit       0.130375
 2825 Fit       0.132840
 2826 Fit       0.135471
 2827 Fit       0.137999
 2828 Fit       0.138387
 2829 Fit       0.135909
 2830 Fit       0.133273
 2831 Fit       0.130764
 2832 Fit       0.128631
 2833 Fit       0.127153
 2834 Fit       0.126569
 2835 Fit       0.126988
 2836 Fit       0.130126
 2837 Fit       0.132308
 2838 Fit       0.134854
 2839 Fit       0.137599
 2840 Fit       0.140432
 2841 Fit       0.143172
 2842 Fit       0.143596
 2843 Fit       0.140902
 2844 Fit       0.138068
 2845 Fit       0.135300
 2846 Fit       0.132713
 2847 Fit       0.130455
 2848 Fit       0.128741
 2849 Fit       0.127780
 2850 Fit       0.127704
 2851 Fit       0.128524
 2852 Fit       0.132439
 2853 Fit       0.134955
 2854 Fit       0.147463
 2855 Fit       0.149182
 2856 Fit       0.145748
 2857 Fit       0.133642
 2858 Fit       0.131378
 2859 Fit       0.129794
 2860 Fit       0.129079
 2861 Fit       0.129320
 2862 Fit       0.130487
 2863 Fit       0.132449
 2864 Fit       0.131074
 2865 Fit       0.130657
 2866 Fit       0.131240
 2867 Fit       0.132762
 2868 Fit       0.133712
 2869 Fit       0.132484
 2870 Fit       0.132306
 2871 Fit       0.133191
 2872 Fit       0.135060
 2873 Fit       0.134735
 2874 Fit       0.133735
 2875 Fit       0.133827
 2876 Fit       0.135003
 2877 Fit       0.135549
 2878 Fit       0.134707
 2879 Fit       0.134989
 2880 Fit       0.136377
 2881 Fit       0.136150
 2882 Fit       0.135258
 2883 Fit       0.135557
 2884 Fit       0.136150
 2885 Fit       0.135258
 2886 Fit       0.135557
 2887 Fit       0.135549
 2888 Fit       0.134707
 2889 Fit       0.134989
 2890 Fit       0.136377
 2891 Fit       0.134735
 2892 Fit       0.133735
 2893 Fit       0.133827
 2894 Fit       0.135003
 2895 Fit       0.133712
 2896 Fit       0.132484
 2897 Fit       0.132306
 2898 Fit       0.133191
 2899 Fit       0.135060
 2900 Fit       0.132449
 2901 Fit       0.131074
 2902 Fit       0.130657
 2903 Fit       0.131240
 2904 Fit       0.132762
 2905 Fit       0.132439
 2906 Fit       0.134955
 2907 Fit       0.147463
 2908 Fit       0.149182
 2909 Fit       0.145748
 2910 Fit       0.133642
 2911 Fit       0.131378
 2912 Fit       0.129794
 2913 Fit       0.129079
 2914 Fit       0.129320
 2915 Fit       0.130487
 2916 Fit       0.130126
 2917 Fit       0.132308
 2918 Fit       0.134854
 2919 Fit       0.137599
 2920 Fit       0.140432
 2921 Fit       0.143172
 2922 Fit       0.143596
 2923 Fit       0.140902
 2924 Fit       0.138068
 2925 Fit       0.135300
 2926 Fit       0.132713
 2927 Fit       0.130455
 2928 Fit       0.128741
 2929 Fit       0.127780
 2930 Fit       0.127704
 2931 Fit       0.128524
 2932 Fit       0.128332
 2933 Fit       0.130375
 2934 Fit       0.132840
 2935 Fit       0.135471
 2936 Fit       0.137999
 2937 Fit       0.138387
 2938 Fit       0.135909
 2939 Fit       0.133273
 2940 Fit       0.130764
 2941 Fit       0.128631
 2942 Fit       0.127153
 2943 Fit       0.126569
 2944 Fit       0.126988
 2945 Fit       0.127214
 2946 Fit       0.129060
 2947 Fit       0.131355
 2948 Fit       0.133725
 2949 Fit       0.135825
 2950 Fit       0.135825
 2951 Fit       0.133725
 2952 Fit       0.131355
 2953 Fit       0.129060
 2954 Fit       0.127214
 2955 Fit       0.126174
 2956 Fit       0.126174
 2957 Fit       0.126888
 2958 Fit       0.128722
 2959 Fit       0.131032
 2960 Fit       0.133174
 2961 Fit       0.133174
 2962 Fit       0.131032
 2963 Fit       0.128722
 2964 Fit       0.126888
 2965 Fit       0.126183
 2966 Fit       0.127440
 2967 Fit       0.129449
 2968 Fit       0.131376
 2969 Fit       0.131376
 2970 Fit       0.129449
 2971 Fit       0.127440
 2972 Fit       0.128927
 2973 Fit       0.140442
 2974 Fit       0.137341
 2975 Fit       0.147453
 2976 Fit       0.142344
 2977 Fit       0.138537
 2978 Fit       0.136028
 2979 Fit       0.134763
 2980 Fit       0.150465
 2981 Fit       0.144385
 2982 Fit       0.139898
 2983 Fit       0.136791
 2984 Fit       0.134890
 2985 Fit       0.134113
 2986 Fit       0.134475
 2987 Fit       0.153486
 2988 Fit       0.146536
 2989 Fit       0.141478
 2990 Fit       0.137890
 2991 Fit       0.135495
 2992 Fit       0.134135
 2993 Fit       0.133762
 2994 Fit       0.134421
 2995 Fit       0.156119
 2996 Fit       0.148166
 2997 Fit       0.142535
 2998 Fit       0.138567
 2999 Fit       0.135871
 3000 Fit       0.134231
 3001 Fit       0.133557
 3002 Fit       0.133866
 3003 Fit       0.135276
 3004 Fit       0.149425
 3005 Fit       0.143471
 3006 Fit       0.139266
 3007 Fit       0.136358
 3008 Fit       0.134493
 3009 Fit       0.133552
 3010 Fit       0.133518
 3011 Fit       0.134470
 3012 Fit       0.136598
 3013 Fit       0.149935
 3014 Fit       0.143891
 3015 Fit       0.139610
 3016 Fit       0.136622
 3017 Fit       0.134664
 3018 Fit       0.133605
 3019 Fit       0.133416
 3020 Fit       0.134155
 3021 Fit       0.135982
 3022 Fit       0.149425
 3023 Fit       0.143471
 3024 Fit       0.139266
 3025 Fit       0.136358
 3026 Fit       0.134493
 3027 Fit       0.133552
 3028 Fit       0.133518
 3029 Fit       0.134470
 3030 Fit       0.136598
 3031 Fit       0.156119
 3032 Fit       0.148166
 3033 Fit       0.142535
 3034 Fit       0.138567
 3035 Fit       0.135871
 3036 Fit       0.134231
 3037 Fit       0.133557
 3038 Fit       0.133866
 3039 Fit       0.135276
 3040 Fit       0.153486
 3041 Fit       0.146536
 3042 Fit       0.141478
 3043 Fit       0.137890
 3044 Fit       0.135495
 3045 Fit       0.134135
 3046 Fit       0.133762
 3047 Fit       0.134421
 3048 Fit       0.150465
 3049 Fit       0.144385
 3050 Fit       0.139898
 3051 Fit       0.136791
 3052 Fit       0.134890
 3053 Fit       0.134113
 3054 Fit       0.134475
 3055 Fit       0.147453
 3056 Fit       0.142344
 3057 Fit       0.138537
 3058 Fit       0.136028
 3059 Fit       0.134763
 3060 Fit       0.140442
 3061 Fit       0.137341
 3062 Fit       0.137341
 3063 Fit       0.140442
 3064 Fit       0.134593
 3065 Fit       0.135242
 3066 Fit       0.137124
 3067 Fit       0.140275
 3068 Fit       0.144742
 3069 Fit       0.150428
 3070 Fit       0.134147
 3071 Fit       0.134362
 3072 Fit       0.135697
 3073 Fit       0.138185
 3074 Fit       0.141956
 3075 Fit       0.147214
 3076 Fit       0.154146
 3077 Fit       0.135180
 3078 Fit       0.133956
 3079 Fit       0.133825
 3080 Fit       0.134691
 3081 Fit       0.136556
 3082 Fit       0.139521
 3083 Fit       0.143801
 3084 Fit       0.149743
 3085 Fit       0.134421
 3086 Fit       0.133584
 3087 Fit       0.133775
 3088 Fit       0.134927
 3089 Fit       0.137076
 3090 Fit       0.140372
 3091 Fit       0.145109
 3092 Fit       0.151796
 3093 Fit       0.135370
 3094 Fit       0.133861
 3095 Fit       0.133419
 3096 Fit       0.133910
 3097 Fit       0.135305
 3098 Fit       0.137669
 3099 Fit       0.141184
 3100 Fit       0.146190
 3101 Fit       0.153289
 3102 Fit       0.135982
 3103 Fit       0.134155
 3104 Fit       0.133416
 3105 Fit       0.133605
 3106 Fit       0.134664
 3107 Fit       0.136622
 3108 Fit       0.139610
 3109 Fit       0.143891
 3110 Fit       0.149935
 3111 Fit       0.135370
 3112 Fit       0.133861
 3113 Fit       0.133419
 3114 Fit       0.133910
 3115 Fit       0.135305
 3116 Fit       0.137669
 3117 Fit       0.141184
 3118 Fit       0.146190
 3119 Fit       0.153289
 3120 Fit       0.134421
 3121 Fit       0.133584
 3122 Fit       0.133775
 3123 Fit       0.134927
 3124 Fit       0.137076
 3125 Fit       0.140372
 3126 Fit       0.145109
 3127 Fit       0.151796
 3128 Fit       0.135180
 3129 Fit       0.133956
 3130 Fit       0.133825
 3131 Fit       0.134691
 3132 Fit       0.136556
 3133 Fit       0.139521
 3134 Fit       0.143801
 3135 Fit       0.149743
 3136 Fit       0.134147
 3137 Fit       0.134362
 3138 Fit       0.135697
 3139 Fit       0.138185
 3140 Fit       0.141956
 3141 Fit       0.147214
 3142 Fit       0.154146
 3143 Fit       0.134593
 3144 Fit       0.135242
 3145 Fit       0.137124
 3146 Fit       0.140275
 3147 Fit       0.144742
 3148 Fit       0.150428
 3149 Fit       0.137341
 3150 Fit       0.140442
 3151 Fit       0.137341
 3152 Fit       0.140442
 3153 Fit       0.134672
 3154 Fit       0.135732
 3155 Fit       0.138031
 3156 Fit       0.141618
 3157 Fit       0.146517
 3158 Fit       0.134147
 3159 Fit       0.134362
 3160 Fit       0.135697
 3161 Fit       0.138185
 3162 Fit       0.141956
 3163 Fit       0.147214
 3164 Fit       0.154146
 3165 Fit       0.134235
 3166 Fit       0.133755
 3167 Fit       0.134293
 3168 Fit       0.135819
 3169 Fit       0.138400
 3170 Fit       0.142210
 3171 Fit       0.147550
 3172 Fit       0.154866
 3173 Fit       0.134421
 3174 Fit       0.133584
 3175 Fit       0.133775
 3176 Fit       0.134927
 3177 Fit       0.137076
 3178 Fit       0.140372
 3179 Fit       0.145109
 3180 Fit       0.151796
 3181 Fit       0.134736
 3182 Fit       0.133604
 3183 Fit       0.133482
 3184 Fit       0.134274
 3185 Fit       0.135979
 3186 Fit       0.138700
 3187 Fit       0.142664
 3188 Fit       0.148283
 3189 Fit       0.156288
 3190 Fit       0.135982
 3191 Fit       0.134155
 3192 Fit       0.133416
 3193 Fit       0.133605
 3194 Fit       0.134664
 3195 Fit       0.136622
 3196 Fit       0.139610
 3197 Fit       0.143891
 3198 Fit       0.149935
 3199 Fit       0.134736
 3200 Fit       0.133604
 3201 Fit       0.133482
 3202 Fit       0.134274
 3203 Fit       0.135979
 3204 Fit       0.138700
 3205 Fit       0.142664
 3206 Fit       0.148283
 3207 Fit       0.156288
 3208 Fit       0.134421
 3209 Fit       0.133584
 3210 Fit       0.133775
 3211 Fit       0.134927
 3212 Fit       0.137076
 3213 Fit       0.140372
 3214 Fit       0.145109
 3215 Fit       0.151796
 3216 Fit       0.134235
 3217 Fit       0.133755
 3218 Fit       0.134293
 3219 Fit       0.135819
 3220 Fit       0.138400
 3221 Fit       0.142210
 3222 Fit       0.147550
 3223 Fit       0.154866
 3224 Fit       0.134147
 3225 Fit       0.134362
 3226 Fit       0.135697
 3227 Fit       0.138185
 3228 Fit       0.141956
 3229 Fit       0.147214
 3230 Fit       0.154146
 3231 Fit       0.134672
 3232 Fit       0.135732
 3233 Fit       0.138031
 3234 Fit       0.141618
 3235 Fit       0.146517
 3236 Fit       0.137341
 3237 Fit       0.140442
 3238 Fit       0.140442
 3239 Fit       0.137341
 3240 Fit       0.151465
 3241 Fit       0.145613
 3242 Fit       0.140928
 3243 Fit       0.137560
 3244 Fit       0.135470
 3245 Fit       0.134615
 3246 Fit       0.150465
 3247 Fit       0.144385
 3248 Fit       0.139898
 3249 Fit       0.136791
 3250 Fit       0.134890
 3251 Fit       0.134113
 3252 Fit       0.134475
 3253 Fit       0.156316
 3254 Fit       0.148618
 3255 Fit       0.142983
 3256 Fit       0.138943
 3257 Fit       0.136173
 3258 Fit       0.134478
 3259 Fit       0.133776
 3260 Fit       0.134080
 3261 Fit       0.156119
 3262 Fit       0.148166
 3263 Fit       0.142535
 3264 Fit       0.138567
 3265 Fit       0.135871
 3266 Fit       0.134231
 3267 Fit       0.133557
 3268 Fit       0.133866
 3269 Fit       0.135276
 3270 Fit       0.154742
 3271 Fit       0.147206
 3272 Fit       0.141902
 3273 Fit       0.138168
 3274 Fit       0.135629
 3275 Fit       0.134080
 3276 Fit       0.133438
 3277 Fit       0.133719
 3278 Fit       0.135035
 3279 Fit       0.149935
 3280 Fit       0.143891
 3281 Fit       0.139610
 3282 Fit       0.136622
 3283 Fit       0.134664
 3284 Fit       0.133605
 3285 Fit       0.133416
 3286 Fit       0.134155
 3287 Fit       0.135982
 3288 Fit       0.154742
 3289 Fit       0.147206
 3290 Fit       0.141902
 3291 Fit       0.138168
 3292 Fit       0.135629
 3293 Fit       0.134080
 3294 Fit       0.133438
 3295 Fit       0.133719
 3296 Fit       0.135035
 3297 Fit       0.156119
 3298 Fit       0.148166
 3299 Fit       0.142535
 3300 Fit       0.138567
 3301 Fit       0.135871
 3302 Fit       0.134231
 3303 Fit       0.133557
 3304 Fit       0.133866
 3305 Fit       0.135276
 3306 Fit       0.156316
 3307 Fit       0.148618
 3308 Fit       0.142983
 3309 Fit       0.138943
 3310 Fit       0.136173
 3311 Fit       0.134478
 3312 Fit       0.133776
 3313 Fit       0.134080
 3314 Fit       0.150465
 3315 Fit       0.144385
 3316 Fit       0.139898
 3317 Fit       0.136791
 3318 Fit       0.134890
 3319 Fit       0.134113
 3320 Fit       0.134475
 3321 Fit       0.151465
 3322 Fit       0.145613
 3323 Fit       0.140928
 3324 Fit       0.137560
 3325 Fit       0.135470
 3326 Fit       0.134615
 3327 Fit       0.140442
 3328 Fit       0.137341
 3329 Fit       0.140442
 3330 Fit       0.137341
 3331 Fit       0.149411
 3332 Fit       0.143907
 3333 Fit       0.139659
 3334 Fit       0.136724
 3335 Fit       0.135048
 3336 Fit       0.134606
 3337 Fit       0.150465
 3338 Fit       0.144385
 3339 Fit       0.139898
 3340 Fit       0.136791
 3341 Fit       0.134890
 3342 Fit       0.134113
 3343 Fit       0.134475
 3344 Fit       0.150927
 3345 Fit       0.144664
 3346 Fit       0.140135
 3347 Fit       0.136969
 3348 Fit       0.134931
 3349 Fit       0.133901
 3350 Fit       0.133862
 3351 Fit       0.134893
 3352 Fit       0.156119
 3353 Fit       0.148166
 3354 Fit       0.142535
 3355 Fit       0.138567
 3356 Fit       0.135871
 3357 Fit       0.134231
 3358 Fit       0.133557
 3359 Fit       0.133866
 3360 Fit       0.135276
 3361 Fit       0.151923
 3362 Fit       0.145231
 3363 Fit       0.140506
 3364 Fit       0.137202
 3365 Fit       0.135008
 3366 Fit       0.133766
 3367 Fit       0.133425
 3368 Fit       0.134034
 3369 Fit       0.135741
 3370 Fit       0.149935
 3371 Fit       0.143891
 3372 Fit       0.139610
 3373 Fit       0.136622
 3374 Fit       0.134664
 3375 Fit       0.133605
 3376 Fit       0.133416
 3377 Fit       0.134155
 3378 Fit       0.135982
 3379 Fit       0.151923
 3380 Fit       0.145231
 3381 Fit       0.140506
 3382 Fit       0.137202
 3383 Fit       0.135008
 3384 Fit       0.133766
 3385 Fit       0.133425
 3386 Fit       0.134034
 3387 Fit       0.135741
 3388 Fit       0.156119
 3389 Fit       0.148166
 3390 Fit       0.142535
 3391 Fit       0.138567
 3392 Fit       0.135871
 3393 Fit       0.134231
 3394 Fit       0.133557
 3395 Fit       0.133866
 3396 Fit       0.135276
 3397 Fit       0.150927
 3398 Fit       0.144664
 3399 Fit       0.140135
 3400 Fit       0.136969
 3401 Fit       0.134931
 3402 Fit       0.133901
 3403 Fit       0.133862
 3404 Fit       0.134893
 3405 Fit       0.150465
 3406 Fit       0.144385
 3407 Fit       0.139898
 3408 Fit       0.136791
 3409 Fit       0.134890
 3410 Fit       0.134113
 3411 Fit       0.134475
 3412 Fit       0.149411
 3413 Fit       0.143907
 3414 Fit       0.139659
 3415 Fit       0.136724
 3416 Fit       0.135048
 3417 Fit       0.134606
 3418 Fit       0.140442
 3419 Fit       0.137341
 3420 Fit       0.137341
 3421 Fit       0.140442
 3422 Fit       0.134889
 3423 Fit       0.136358
 3424 Fit       0.139080
 3425 Fit       0.143107
 3426 Fit       0.148418
 3427 Fit       0.134362
 3428 Fit       0.135697
 3429 Fit       0.138185
 3430 Fit       0.141956
 3431 Fit       0.147214
 3432 Fit       0.154146
 3433 Fit       0.134147
 3434 Fit       0.134005
 3435 Fit       0.135199
 3436 Fit       0.137414
 3437 Fit       0.140787
 3438 Fit       0.145575
 3439 Fit       0.152174
 3440 Fit       0.134640
 3441 Fit       0.133798
 3442 Fit       0.133775
 3443 Fit       0.134927
 3444 Fit       0.137076
 3445 Fit       0.140372
 3446 Fit       0.145109
 3447 Fit       0.151796
 3448 Fit       0.134421
 3449 Fit       0.133584
 3450 Fit       0.133647
 3451 Fit       0.134738
 3452 Fit       0.136765
 3453 Fit       0.139868
 3454 Fit       0.144325
 3455 Fit       0.150637
 3456 Fit       0.136149
 3457 Fit       0.134236
 3458 Fit       0.133458
 3459 Fit       0.133605
 3460 Fit       0.134664
 3461 Fit       0.136622
 3462 Fit       0.139610
 3463 Fit       0.143891
 3464 Fit       0.149935
 3465 Fit       0.135982
 3466 Fit       0.134155
 3467 Fit       0.133416
 3468 Fit       0.133647
 3469 Fit       0.134738
 3470 Fit       0.136765
 3471 Fit       0.139868
 3472 Fit       0.144325
 3473 Fit       0.150637
 3474 Fit       0.136149
 3475 Fit       0.134236
 3476 Fit       0.133458
 3477 Fit       0.133775
 3478 Fit       0.134927
 3479 Fit       0.137076
 3480 Fit       0.140372
 3481 Fit       0.145109
 3482 Fit       0.151796
 3483 Fit       0.134421
 3484 Fit       0.133584
 3485 Fit       0.134005
 3486 Fit       0.135199
 3487 Fit       0.137414
 3488 Fit       0.140787
 3489 Fit       0.145575
 3490 Fit       0.152174
 3491 Fit       0.134640
 3492 Fit       0.133798
 3493 Fit       0.134362
 3494 Fit       0.135697
 3495 Fit       0.138185
 3496 Fit       0.141956
 3497 Fit       0.147214
 3498 Fit       0.154146
 3499 Fit       0.134147
 3500 Fit       0.134889
 3501 Fit       0.136358
 3502 Fit       0.139080
 3503 Fit       0.143107
 3504 Fit       0.148418
 3505 Fit       0.137341
 3506 Fit       0.140442
 -----------------------------------------------------------------
 Leave Link  602 at Tue Sep 30 17:06:19 2025, MaxMem=  4294967296 cpu:               2.1 elap:               0.2
 (Enter /software/sse/easybuild/prefix/software/Gaussian/16.C.01-avx2-nsc1/g16/l9999.exe)

 Test job not archived.
 1\1\NSC-N76\FOpt\RMP2-FC\Aug-CC-pVTZ\C1H6N3(1+)\X_DAVVA\30-Sep-2025\0\
 \#P MP2/aug-cc-pvtz Opt=tight density=MP2 Pop=(MK,Hirshfeld) iop(6/33=
 2) iop(6/42=6) maxdisk=128GB\\guanidinium\\1,1\C,-0.0000000009,-0.0000
 019954,0.\N,0.0000000048,1.3293390855,0.\N,-1.1512431333,-0.6646725335
 ,0.\N,1.1512431241,-0.6646725321,0.\H,-1.1730756856,-1.6699884954,0.\H
 ,-2.0327885801,-0.1809221218,0.\H,0.8597128925,1.8509045926,0.\H,-0.85
 97128765,1.8509046064,0.\H,2.0327885656,-0.1809221024,0.\H,1.173075694
 6,-1.6699884969,0.\\Version=ES64L-G16RevC.01\State=1-A'\HF=-204.616187
 6\MP2=-205.4017715\RMSD=9.717e-09\RMSF=1.904e-07\Dipole=0.,0.,0.\Quadr
 upole=4.1356342,4.1356342,-8.2712684,0.,0.,0.\PG=CS [SG(C1H6N3)]\\@


 ABSOLUTISM, OBSOLETISM -- IF IT WORKS, IT'S OUT OF DATE

                          -- STAFFORD BEER
 Job cpu time:       0 days  1 hours 51 minutes 11.5 seconds.
 Elapsed time:       0 days  0 hours  7 minutes 25.3 seconds.
 File lengths (MBytes):  RWF=   8114 Int=      0 D2E=      0 Chk=     16 Scr=      1
 Normal termination of Gaussian 16 at Tue Sep 30 17:06:20 2025.
