 Entering Gaussian System, Link 0=/software/sse/easybuild/prefix/software/Gaussian/16.C.01-avx2-nsc1/g16/g16.orig
 Input=ethylammonium.wrap
 Output=ethylammonium.log
 Initial command:
 /software/sse/easybuild/prefix/software/Gaussian/16.C.01-avx2-nsc1/g16/l1.exe "/scratch/local/Gau-1557481.inp" -scrdir="/scratch/local/"
 Entering Link 1 = /software/sse/easybuild/prefix/software/Gaussian/16.C.01-avx2-nsc1/g16/l1.exe PID=   1557482.
  
 Copyright (c) 1988-2019, Gaussian, Inc.  All Rights Reserved.
  
 This is part of the Gaussian(R) 16 program.  It is based on
 the Gaussian(R) 09 system (copyright 2009, Gaussian, Inc.),
 the Gaussian(R) 03 system (copyright 2003, Gaussian, Inc.),
 the Gaussian(R) 98 system (copyright 1998, Gaussian, Inc.),
 the Gaussian(R) 94 system (copyright 1995, Gaussian, Inc.),
 the Gaussian 92(TM) system (copyright 1992, Gaussian, Inc.),
 the Gaussian 90(TM) system (copyright 1990, Gaussian, Inc.),
 the Gaussian 88(TM) system (copyright 1988, Gaussian, Inc.),
 the Gaussian 86(TM) system (copyright 1986, Carnegie Mellon
 University), and the Gaussian 82(TM) system (copyright 1983,
 Carnegie Mellon University). Gaussian is a federally registered
 trademark of Gaussian, Inc.
  
 This software contains proprietary and confidential information,
 including trade secrets, belonging to Gaussian, Inc.
  
 This software is provided under written license and may be
 used, copied, transmitted, or stored only in accord with that
 written license.
  
 The following legend is applicable only to US Government
 contracts under FAR:
  
                    RESTRICTED RIGHTS LEGEND
  
 Use, reproduction and disclosure by the US Government is
 subject to restrictions as set forth in subparagraphs (a)
 and (c) of the Commercial Computer Software - Restricted
 Rights clause in FAR 52.227-19.
  
 Gaussian, Inc.
 340 Quinnipiac St., Bldg. 40, Wallingford CT 06492
  
  
 ---------------------------------------------------------------
 Warning -- This program may not be used in any manner that
 competes with the business of Gaussian, Inc. or will provide
 assistance to any competitor of Gaussian, Inc.  The licensee
 of this program is prohibited from giving any competitor of
 Gaussian, Inc. access to this program.  By using this program,
 the user acknowledges that Gaussian, Inc. is engaged in the
 business of creating and licensing software in the field of
 computational chemistry and represents and warrants to the
 licensee that it is not a competitor of Gaussian, Inc. and that
 it will not use this program in any manner prohibited above.
 ---------------------------------------------------------------
  

 Cite this work as:
 Gaussian 16, Revision C.01,
 M. J. Frisch, G. W. Trucks, H. B. Schlegel, G. E. Scuseria, 
 M. A. Robb, J. R. Cheeseman, G. Scalmani, V. Barone, 
 G. A. Petersson, H. Nakatsuji, X. Li, M. Caricato, A. V. Marenich, 
 J. Bloino, B. G. Janesko, R. Gomperts, B. Mennucci, H. P. Hratchian, 
 J. V. Ortiz, A. F. Izmaylov, J. L. Sonnenberg, D. Williams-Young, 
 F. Ding, F. Lipparini, F. Egidi, J. Goings, B. Peng, A. Petrone, 
 T. Henderson, D. Ranasinghe, V. G. Zakrzewski, J. Gao, N. Rega, 
 G. Zheng, W. Liang, M. Hada, M. Ehara, K. Toyota, R. Fukuda, 
 J. Hasegawa, M. Ishida, T. Nakajima, Y. Honda, O. Kitao, H. Nakai, 
 T. Vreven, K. Throssell, J. A. Montgomery, Jr., J. E. Peralta, 
 F. Ogliaro, M. J. Bearpark, J. J. Heyd, E. N. Brothers, K. N. Kudin, 
 V. N. Staroverov, T. A. Keith, R. Kobayashi, J. Normand, 
 K. Raghavachari, A. P. Rendell, J. C. Burant, S. S. Iyengar, 
 J. Tomasi, M. Cossi, J. M. Millam, M. Klene, C. Adamo, R. Cammi, 
 J. W. Ochterski, R. L. Martin, K. Morokuma, O. Farkas, 
 J. B. Foresman, and D. J. Fox, Gaussian, Inc., Wallingford CT, 2019.
 
 ******************************************
 Gaussian 16:  ES64L-G16RevC.01  3-Jul-2019
                30-Sep-2025 
 ******************************************
 %mem=12000MB
 %nprocshared=16
 Will use up to   16 processors via shared memory.
 %mem=32Gb
 %chk=ethylammonium.chk
 ----------------------------------------------------------------------
 #P HF/aug-cc-pvtz Opt=tight Pop=(MK,Hirshfeld) iop(6/33=2) iop(6/42=6)
  maxdisk=128GB
 ----------------------------------------------------------------------
 1/7=10,18=20,19=15,38=1/1,3;
 2/9=110,12=2,17=6,18=5,40=1/2;
 3/5=16,6=1,7=10,11=9,25=1,30=1,71=1/1,2,3;
 4//1;
 5/5=2,38=5/2;
 6/7=2,8=2,9=2,10=2,15=8,20=1,28=1,33=2,42=6,79=1/1,2;
 7//1,2,3,16;
 1/7=10,18=20,19=15/3(2);
 2/9=110/2;
 99//99;
 2/9=110/2;
 3/5=16,6=1,7=10,11=9,25=1,30=1,71=1/1,2,3;
 4/5=5,16=3,69=1/1;
 5/5=2,38=5/2;
 7//1,2,3,16;
 1/7=10,18=20,19=15/3(-5);
 2/9=110/2;
 6/7=2,8=2,9=2,10=2,15=8,19=2,20=1,28=1,33=2,42=6,79=1/1,2;
 99/9=1/99;
 Leave Link    1 at Tue Sep 30 16:58:49 2025, MaxMem=  4294967296 cpu:               0.9 elap:               0.1
 (Enter /software/sse/easybuild/prefix/software/Gaussian/16.C.01-avx2-nsc1/g16/l101.exe)
 -------------
 ethylammonium
 -------------
 Symbolic Z-matrix:
 Charge =  1 Multiplicity = 1
 N                    -1.17155  -0.35108   0. 
 C                     0.        0.60968   0. 
 H                    -2.05186   0.13826   0. 
 H                    -1.15209  -0.94693   0.81212 
 H                    -1.15209  -0.94693  -0.81212 
 H                    -0.11903   1.22455   0.8784 
 H                    -0.11903   1.22455  -0.8784 
 C                     1.30898  -0.15165   0. 
 H                     1.4092   -0.77193   0.88248 
 H                     2.12267   0.55969   0. 
 H                     1.4092   -0.77193  -0.88248 
 
 ITRead=  0  0  0  0  0  0  0  0  0  0  0
 MicOpt= -1 -1 -1 -1 -1 -1 -1 -1 -1 -1 -1
 NAtoms=     11 NQM=       11 NQMF=       0 NMMI=      0 NMMIF=      0
                NMic=       0 NMicF=      0.
                    Isotopes and Nuclear Properties:
 (Nuclear quadrupole moments (NQMom) in fm**2, nuclear magnetic moments (NMagM)
  in nuclear magnetons)

  Atom         1           2           3           4           5           6           7           8           9          10
 IAtWgt=          14          12           1           1           1           1           1          12           1           1
 AtmWgt=  14.0030740  12.0000000   1.0078250   1.0078250   1.0078250   1.0078250   1.0078250  12.0000000   1.0078250   1.0078250
 NucSpn=           2           0           1           1           1           1           1           0           1           1
 AtZEff=  -0.0000000  -0.0000000  -0.0000000  -0.0000000  -0.0000000  -0.0000000  -0.0000000  -0.0000000  -0.0000000  -0.0000000
 NQMom=    2.0440000   0.0000000   0.0000000   0.0000000   0.0000000   0.0000000   0.0000000   0.0000000   0.0000000   0.0000000
 NMagM=    0.4037610   0.0000000   2.7928460   2.7928460   2.7928460   2.7928460   2.7928460   0.0000000   2.7928460   2.7928460
 AtZNuc=   7.0000000   6.0000000   1.0000000   1.0000000   1.0000000   1.0000000   1.0000000   6.0000000   1.0000000   1.0000000

  Atom        11
 IAtWgt=           1
 AtmWgt=   1.0078250
 NucSpn=           1
 AtZEff=  -0.0000000
 NQMom=    0.0000000
 NMagM=    2.7928460
 AtZNuc=   1.0000000
 Leave Link  101 at Tue Sep 30 16:58:50 2025, MaxMem=  4294967296 cpu:               5.3 elap:               0.4
 (Enter /software/sse/easybuild/prefix/software/Gaussian/16.C.01-avx2-nsc1/g16/l103.exe)

 GradGradGradGradGradGradGradGradGradGradGradGradGradGradGradGradGradGrad
 Berny optimization.
 Initialization pass.
                           ----------------------------
                           !    Initial Parameters    !
                           ! (Angstroms and Degrees)  !
 --------------------------                            --------------------------
 ! Name  Definition              Value          Derivative Info.                !
 --------------------------------------------------------------------------------
 ! R1    R(1,2)                  1.5151         estimate D2E/DX2                !
 ! R2    R(1,3)                  1.0072         estimate D2E/DX2                !
 ! R3    R(1,4)                  1.0074         estimate D2E/DX2                !
 ! R4    R(1,5)                  1.0074         estimate D2E/DX2                !
 ! R5    R(2,6)                  1.0788         estimate D2E/DX2                !
 ! R6    R(2,7)                  1.0788         estimate D2E/DX2                !
 ! R7    R(2,8)                  1.5143         estimate D2E/DX2                !
 ! R8    R(8,9)                  1.0833         estimate D2E/DX2                !
 ! R9    R(8,10)                 1.0808         estimate D2E/DX2                !
 ! R10   R(8,11)                 1.0833         estimate D2E/DX2                !
 ! A1    A(2,1,3)              111.5772         estimate D2E/DX2                !
 ! A2    A(2,1,4)              111.1068         estimate D2E/DX2                !
 ! A3    A(2,1,5)              111.1068         estimate D2E/DX2                !
 ! A4    A(3,1,4)              107.7124         estimate D2E/DX2                !
 ! A5    A(3,1,5)              107.7124         estimate D2E/DX2                !
 ! A6    A(4,1,5)              107.4361         estimate D2E/DX2                !
 ! A7    A(1,2,6)              106.0277         estimate D2E/DX2                !
 ! A8    A(1,2,7)              106.0277         estimate D2E/DX2                !
 ! A9    A(1,2,8)              110.4625         estimate D2E/DX2                !
 ! A10   A(6,2,7)              109.0235         estimate D2E/DX2                !
 ! A11   A(6,2,8)              112.4533         estimate D2E/DX2                !
 ! A12   A(7,2,8)              112.4533         estimate D2E/DX2                !
 ! A13   A(2,8,9)              111.5826         estimate D2E/DX2                !
 ! A14   A(2,8,10)             108.6564         estimate D2E/DX2                !
 ! A15   A(2,8,11)             111.5826         estimate D2E/DX2                !
 ! A16   A(9,8,10)             107.8908         estimate D2E/DX2                !
 ! A17   A(9,8,11)             109.0984         estimate D2E/DX2                !
 ! A18   A(10,8,11)            107.8908         estimate D2E/DX2                !
 ! D1    D(3,1,2,6)             57.9046         estimate D2E/DX2                !
 ! D2    D(3,1,2,7)            -57.9046         estimate D2E/DX2                !
 ! D3    D(3,1,2,8)            180.0            estimate D2E/DX2                !
 ! D4    D(4,1,2,6)            -62.3169         estimate D2E/DX2                !
 ! D5    D(4,1,2,7)           -178.1262         estimate D2E/DX2                !
 ! D6    D(4,1,2,8)             59.7784         estimate D2E/DX2                !
 ! D7    D(5,1,2,6)            178.1262         estimate D2E/DX2                !
 ! D8    D(5,1,2,7)             62.3169         estimate D2E/DX2                !
 ! D9    D(5,1,2,8)            -59.7784         estimate D2E/DX2                !
 ! D10   D(1,2,8,9)            -61.1676         estimate D2E/DX2                !
 ! D11   D(1,2,8,10)           180.0            estimate D2E/DX2                !
 ! D12   D(1,2,8,11)            61.1676         estimate D2E/DX2                !
 ! D13   D(6,2,8,9)             57.0663         estimate D2E/DX2                !
 ! D14   D(6,2,8,10)           -61.7661         estimate D2E/DX2                !
 ! D15   D(6,2,8,11)           179.4015         estimate D2E/DX2                !
 ! D16   D(7,2,8,9)           -179.4015         estimate D2E/DX2                !
 ! D17   D(7,2,8,10)            61.7661         estimate D2E/DX2                !
 ! D18   D(7,2,8,11)           -57.0663         estimate D2E/DX2                !
 --------------------------------------------------------------------------------
 Trust Radius=3.00D-01 FncErr=1.00D-07 GrdErr=1.00D-07 EigMax=2.50D+02 EigMin=1.00D-04
 Number of steps in this run=     56 maximum allowed number of steps=    100.
 GradGradGradGradGradGradGradGradGradGradGradGradGradGradGradGradGradGrad

 Leave Link  103 at Tue Sep 30 16:58:50 2025, MaxMem=  4294967296 cpu:               0.2 elap:               0.0
 (Enter /software/sse/easybuild/prefix/software/Gaussian/16.C.01-avx2-nsc1/g16/l202.exe)
                          Input orientation:                          
 ---------------------------------------------------------------------
 Center     Atomic      Atomic             Coordinates (Angstroms)
 Number     Number       Type             X           Y           Z
 ---------------------------------------------------------------------
      1          7           0       -1.171550   -0.351080    0.000000
      2          6           0        0.000000    0.609680    0.000000
      3          1           0       -2.051860    0.138260    0.000000
      4          1           0       -1.152090   -0.946930    0.812120
      5          1           0       -1.152090   -0.946930   -0.812120
      6          1           0       -0.119030    1.224550    0.878400
      7          1           0       -0.119030    1.224550   -0.878400
      8          6           0        1.308980   -0.151650    0.000000
      9          1           0        1.409200   -0.771930    0.882480
     10          1           0        2.122670    0.559690    0.000000
     11          1           0        1.409200   -0.771930   -0.882480
 ---------------------------------------------------------------------
                    Distance matrix (angstroms):
                    1          2          3          4          5
     1  N    0.000000
     2  C    1.515120   0.000000
     3  H    1.007174   2.105319   0.000000
     4  H    1.007450   2.099973   1.626887   0.000000
     5  H    1.007450   2.099973   1.626887   1.624240   0.000000
     6  H    2.088539   1.078805   2.384836   2.405604   2.939455
     7  H    2.088539   1.078805   2.384836   2.939455   2.405604
     8  C    2.488534   1.514283   3.373321   2.710881   2.710881
     9  H    2.759738   2.161819   3.685940   2.568225   3.076118
    10  H    3.417804   2.123259   4.195748   3.695064   3.695064
    11  H    2.759738   2.161819   3.685940   3.076118   2.568225
                    6          7          8          9         10
     6  H    0.000000
     7  H    1.756800   0.000000
     8  C    2.169038   2.169038   0.000000
     9  H    2.514247   3.069547   1.083311   0.000000
    10  H    2.497768   2.497768   1.080785   1.749578   0.000000
    11  H    3.069547   2.514247   1.083311   1.764960   1.749578
                   11
    11  H    0.000000
 Stoichiometry    C2H8N(1+)
 Framework group  CS[SG(C2H2N),X(H6)]
 Deg. of freedom    16
 Full point group                 CS      NOp   2
 Largest Abelian subgroup         CS      NOp   2
 Largest concise Abelian subgroup CS      NOp   2
                         Standard orientation:                         
 ---------------------------------------------------------------------
 Center     Atomic      Atomic             Coordinates (Angstroms)
 Number     Number       Type             X           Y           Z
 ---------------------------------------------------------------------
      1          7           0       -1.171550   -0.351078    0.000000
      2          6           0       -0.000000    0.609682    0.000000
      3          1           0       -2.051860    0.138262    0.000000
      4          1           0       -1.152090   -0.946928    0.812120
      5          1           0       -1.152090   -0.946928   -0.812120
      6          1           0       -0.119030    1.224552    0.878400
      7          1           0       -0.119030    1.224552   -0.878400
      8          6           0        1.308980   -0.151648    0.000000
      9          1           0        1.409200   -0.771928    0.882480
     10          1           0        2.122670    0.559692    0.000000
     11          1           0        1.409200   -0.771928   -0.882480
 ---------------------------------------------------------------------
 Rotational constants (GHZ):          29.8923434           8.4092946           7.4216156
 Leave Link  202 at Tue Sep 30 16:58:50 2025, MaxMem=  4294967296 cpu:               0.1 elap:               0.0
 (Enter /software/sse/easybuild/prefix/software/Gaussian/16.C.01-avx2-nsc1/g16/l301.exe)
 Standard basis: Aug-CC-pVTZ (5D, 7F)
 Ernie: Thresh=  0.10000D-02 Tol=  0.10000D-05 Strict=F.
 Ernie:  9 primitive shells out of 178 were deleted.
 There are   222 symmetry adapted cartesian basis functions of A'  symmetry.
 There are   143 symmetry adapted cartesian basis functions of A"  symmetry.
 There are   191 symmetry adapted basis functions of A'  symmetry.
 There are   131 symmetry adapted basis functions of A"  symmetry.
   322 basis functions,   432 primitive gaussians,   365 cartesian basis functions
    13 alpha electrons       13 beta electrons
       nuclear repulsion energy        90.4610123667 Hartrees.
 IExCor=    0 DFT=F Ex=HF Corr=None ExCW=0 ScaHFX=  1.000000
 ScaDFX=  1.000000  1.000000  1.000000  1.000000 ScalE2=  1.000000  1.000000
 IRadAn=      5 IRanWt=     -1 IRanGd=            0 ICorTp=0 IEmpDi=  4
 NAtoms=   11 NActive=   11 NUniq=    8 SFac= 1.89D+00 NAtFMM=   60 NAOKFM=F Big=F
 Integral buffers will be    131072 words long.
 Raffenetti 1 integral format.
 Two-electron integral symmetry is turned on.
 Leave Link  301 at Tue Sep 30 16:58:51 2025, MaxMem=  4294967296 cpu:               0.8 elap:               0.1
 (Enter /software/sse/easybuild/prefix/software/Gaussian/16.C.01-avx2-nsc1/g16/l302.exe)
 NPDir=0 NMtPBC=     1 NCelOv=     1 NCel=       1 NClECP=     1 NCelD=      1
         NCelK=      1 NCelE2=     1 NClLst=     1 CellRange=     0.0.
 One-electron integrals computed using PRISM.
 One-electron integral symmetry used in STVInt
 NBasis=   322 RedAO= T EigKep=  1.26D-05  NBF=   191   131
 NBsUse=   322 1.00D-06 EigRej= -1.00D+00 NBFU=   191   131
 Leave Link  302 at Tue Sep 30 16:58:51 2025, MaxMem=  4294967296 cpu:               2.5 elap:               0.2
 (Enter /software/sse/easybuild/prefix/software/Gaussian/16.C.01-avx2-nsc1/g16/l303.exe)
 DipDrv:  MaxL=1.
 Leave Link  303 at Tue Sep 30 16:58:52 2025, MaxMem=  4294967296 cpu:               0.5 elap:               0.1
 (Enter /software/sse/easybuild/prefix/software/Gaussian/16.C.01-avx2-nsc1/g16/l401.exe)
 ExpMin= 2.53D-02 ExpMax= 1.14D+04 ExpMxC= 3.89D+02 IAcc=3 IRadAn=         5 AccDes= 0.00D+00
 Harris functional with IExCor=  205 and IRadAn=       5 diagonalized for initial guess.
 HarFok:  IExCor=  205 AccDes= 0.00D+00 IRadAn=         5 IDoV= 1 UseB2=F ITyADJ=14
 ICtDFT=  3500011 ScaDFX=  1.000000  1.000000  1.000000  1.000000
 FoFCou: FMM=F IPFlag=           0 FMFlag=      100000 FMFlg1=           0
         NFxFlg=           0 DoJE=T BraDBF=F KetDBF=T FulRan=T
         wScrn=  0.000000 ICntrl=       500 IOpCl=  0 I1Cent=   200000004 NGrid=           0
         NMat0=    1 NMatS0=      1 NMatT0=    0 NMatD0=    1 NMtDS0=    0 NMtDT0=    0
 Petite list used in FoFCou.
 Harris En= -135.034397065467    
 JPrj=0 DoOrth=F DoCkMO=F.
 Initial guess orbital symmetries:
       Occupied  (A') (A') (A') (A') (A') (A') (A") (A') (A') (A")
                 (A') (A') (A")
       Virtual   (A') (A') (A') (A") (A') (A') (A') (A") (A") (A')
                 (A') (A") (A') (A') (A") (A') (A') (A") (A') (A')
                 (A") (A') (A") (A") (A') (A') (A') (A') (A') (A')
                 (A") (A') (A") (A") (A") (A') (A') (A') (A") (A')
                 (A") (A") (A') (A') (A') (A") (A") (A') (A") (A')
                 (A') (A') (A') (A") (A') (A') (A") (A') (A') (A")
                 (A") (A') (A') (A") (A') (A") (A') (A") (A') (A')
                 (A') (A") (A') (A') (A") (A') (A") (A') (A') (A")
                 (A") (A') (A') (A") (A') (A") (A') (A") (A') (A")
                 (A') (A') (A") (A') (A') (A") (A") (A') (A") (A")
                 (A') (A') (A') (A") (A") (A') (A') (A') (A") (A')
                 (A') (A") (A") (A') (A") (A') (A') (A") (A') (A")
                 (A') (A") (A') (A") (A') (A') (A") (A') (A") (A')
                 (A') (A") (A") (A') (A') (A') (A") (A") (A') (A")
                 (A') (A') (A") (A') (A") (A') (A') (A") (A") (A')
                 (A') (A') (A") (A') (A") (A") (A') (A') (A") (A')
                 (A") (A') (A") (A') (A') (A") (A') (A') (A') (A")
                 (A') (A") (A') (A") (A') (A") (A') (A') (A") (A")
                 (A') (A') (A") (A') (A') (A") (A") (A') (A') (A')
                 (A') (A') (A") (A') (A") (A') (A") (A') (A") (A')
                 (A") (A') (A") (A") (A') (A') (A') (A") (A") (A')
                 (A") (A') (A") (A') (A') (A") (A') (A") (A') (A')
                 (A') (A") (A") (A") (A') (A") (A") (A') (A") (A")
                 (A') (A') (A') (A") (A') (A") (A') (A') (A') (A")
                 (A") (A') (A') (A") (A') (A") (A') (A') (A") (A')
                 (A') (A') (A") (A') (A') (A") (A') (A') (A") (A")
                 (A') (A') (A") (A") (A') (A') (A") (A') (A') (A")
                 (A") (A') (A") (A') (A') (A') (A") (A") (A") (A')
                 (A') (A") (A") (A') (A') (A') (A") (A') (A') (A")
                 (A') (A") (A') (A') (A") (A") (A') (A") (A') (A')
                 (A") (A') (A") (A') (A') (A") (A') (A') (A')
 The electronic state of the initial guess is 1-A'.
 Leave Link  401 at Tue Sep 30 16:58:53 2025, MaxMem=  4294967296 cpu:               5.3 elap:               0.4
 (Enter /software/sse/easybuild/prefix/software/Gaussian/16.C.01-avx2-nsc1/g16/l502.exe)
 Keep R1 ints in memory in symmetry-blocked form, NReq=2029357714.
 FoFCou: FMM=F IPFlag=           0 FMFlag=           0 FMFlg1=           0
         NFxFlg=           0 DoJE=F BraDBF=F KetDBF=F FulRan=T
         wScrn=  0.000000 ICntrl=       600 IOpCl=  0 I1Cent=           0 NGrid=           0
         NMat0=    1 NMatS0=  52003 NMatT0=    0 NMatD0=    1 NMtDS0=    0 NMtDT0=    0
 Petite list used in FoFCou.
 Closed shell SCF:
 Using DIIS extrapolation, IDIIS=  1040.
 NGot=  4294967296 LenX=  3617518067 LenY=  3617384401
 Requested convergence on RMS density matrix=1.00D-08 within 128 cycles.
 Requested convergence on MAX density matrix=1.00D-06.
 Requested convergence on             energy=1.00D-06.
 No special actions if energy rises.

 Cycle   1  Pass 1  IDiag  1:
 E= -134.500899558851    
 DIIS: error= 2.68D-02 at cycle   1 NSaved=   1.
 NSaved= 1 IEnMin= 1 EnMin= -134.500899558851     IErMin= 1 ErrMin= 2.68D-02
 ErrMax= 2.68D-02  0.00D+00 EMaxC= 1.00D-01 BMatC= 3.29D-01 BMatP= 3.29D-01
 IDIUse=3 WtCom= 7.32D-01 WtEn= 2.68D-01
 Coeff-Com:  0.100D+01
 Coeff-En:   0.100D+01
 Coeff:      0.100D+01
 Gap=     0.539 Goal=   None    Shift=    0.000
 GapD=    0.539 DampG=2.000 DampE=0.500 DampFc=1.0000 IDamp=-1.
 RMSDP=1.39D-03 MaxDP=6.09D-02              OVMax= 1.20D-01

 Cycle   2  Pass 1  IDiag  1:
 E= -134.651763060766     Delta-E=       -0.150863501915 Rises=F Damp=F
 DIIS: error= 1.16D-02 at cycle   2 NSaved=   2.
 NSaved= 2 IEnMin= 2 EnMin= -134.651763060766     IErMin= 2 ErrMin= 1.16D-02
 ErrMax= 1.16D-02  0.00D+00 EMaxC= 1.00D-01 BMatC= 2.67D-02 BMatP= 3.29D-01
 IDIUse=3 WtCom= 8.84D-01 WtEn= 1.16D-01
 Coeff-Com:  0.139D+00 0.861D+00
 Coeff-En:   0.000D+00 0.100D+01
 Coeff:      0.123D+00 0.877D+00
 Gap=     0.605 Goal=   None    Shift=    0.000
 RMSDP=5.26D-04 MaxDP=2.48D-02 DE=-1.51D-01 OVMax= 4.74D-02

 Cycle   3  Pass 1  IDiag  1:
 E= -134.673703989076     Delta-E=       -0.021940928310 Rises=F Damp=F
 DIIS: error= 3.32D-03 at cycle   3 NSaved=   3.
 NSaved= 3 IEnMin= 3 EnMin= -134.673703989076     IErMin= 3 ErrMin= 3.32D-03
 ErrMax= 3.32D-03  0.00D+00 EMaxC= 1.00D-01 BMatC= 1.92D-03 BMatP= 2.67D-02
 IDIUse=3 WtCom= 9.67D-01 WtEn= 3.32D-02
 Coeff-Com: -0.253D-01 0.164D+00 0.861D+00
 Coeff-En:   0.000D+00 0.000D+00 0.100D+01
 Coeff:     -0.244D-01 0.159D+00 0.866D+00
 Gap=     0.582 Goal=   None    Shift=    0.000
 RMSDP=1.07D-04 MaxDP=4.18D-03 DE=-2.19D-02 OVMax= 9.50D-03

 Cycle   4  Pass 1  IDiag  1:
 E= -134.675567905354     Delta-E=       -0.001863916278 Rises=F Damp=F
 DIIS: error= 4.51D-04 at cycle   4 NSaved=   4.
 NSaved= 4 IEnMin= 4 EnMin= -134.675567905354     IErMin= 4 ErrMin= 4.51D-04
 ErrMax= 4.51D-04  0.00D+00 EMaxC= 1.00D-01 BMatC= 3.20D-05 BMatP= 1.92D-03
 IDIUse=3 WtCom= 9.95D-01 WtEn= 4.51D-03
 Coeff-Com:  0.541D-03-0.308D-01-0.839D-01 0.111D+01
 Coeff-En:   0.000D+00 0.000D+00 0.000D+00 0.100D+01
 Coeff:      0.538D-03-0.307D-01-0.836D-01 0.111D+01
 Gap=     0.582 Goal=   None    Shift=    0.000
 RMSDP=3.06D-05 MaxDP=2.04D-03 DE=-1.86D-03 OVMax= 2.96D-03

 Cycle   5  Pass 1  IDiag  1:
 E= -134.675633165365     Delta-E=       -0.000065260011 Rises=F Damp=F
 DIIS: error= 1.08D-04 at cycle   5 NSaved=   5.
 NSaved= 5 IEnMin= 5 EnMin= -134.675633165365     IErMin= 5 ErrMin= 1.08D-04
 ErrMax= 1.08D-04  0.00D+00 EMaxC= 1.00D-01 BMatC= 3.55D-06 BMatP= 3.20D-05
 IDIUse=3 WtCom= 9.99D-01 WtEn= 1.08D-03
 Coeff-Com:  0.205D-02-0.150D-01-0.736D-01 0.147D-01 0.107D+01
 Coeff-En:   0.000D+00 0.000D+00 0.000D+00 0.000D+00 0.100D+01
 Coeff:      0.204D-02-0.150D-01-0.735D-01 0.147D-01 0.107D+01
 Gap=     0.583 Goal=   None    Shift=    0.000
 RMSDP=9.39D-06 MaxDP=5.31D-04 DE=-6.53D-05 OVMax= 1.01D-03

 Cycle   6  Pass 1  IDiag  1:
 E= -134.675640219811     Delta-E=       -0.000007054446 Rises=F Damp=F
 DIIS: error= 3.31D-05 at cycle   6 NSaved=   6.
 NSaved= 6 IEnMin= 6 EnMin= -134.675640219811     IErMin= 6 ErrMin= 3.31D-05
 ErrMax= 3.31D-05  0.00D+00 EMaxC= 1.00D-01 BMatC= 2.40D-07 BMatP= 3.55D-06
 IDIUse=1 WtCom= 1.00D+00 WtEn= 0.00D+00
 Coeff-Com:  0.325D-03-0.912D-03-0.688D-02-0.616D-01 0.151D+00 0.919D+00
 Coeff:      0.325D-03-0.912D-03-0.688D-02-0.616D-01 0.151D+00 0.919D+00
 Gap=     0.583 Goal=   None    Shift=    0.000
 RMSDP=1.96D-06 MaxDP=7.44D-05 DE=-7.05D-06 OVMax= 2.66D-04

 Cycle   7  Pass 1  IDiag  1:
 E= -134.675640595406     Delta-E=       -0.000000375595 Rises=F Damp=F
 DIIS: error= 8.18D-06 at cycle   7 NSaved=   7.
 NSaved= 7 IEnMin= 7 EnMin= -134.675640595406     IErMin= 7 ErrMin= 8.18D-06
 ErrMax= 8.18D-06  0.00D+00 EMaxC= 1.00D-01 BMatC= 1.96D-08 BMatP= 2.40D-07
 IDIUse=1 WtCom= 1.00D+00 WtEn= 0.00D+00
 Coeff-Com: -0.179D-03 0.140D-02 0.682D-02-0.144D-02-0.979D-01 0.435D-02
 Coeff-Com:  0.109D+01
 Coeff:     -0.179D-03 0.140D-02 0.682D-02-0.144D-02-0.979D-01 0.435D-02
 Coeff:      0.109D+01
 Gap=     0.583 Goal=   None    Shift=    0.000
 RMSDP=6.15D-07 MaxDP=2.04D-05 DE=-3.76D-07 OVMax= 6.31D-05

 Cycle   8  Pass 1  IDiag  1:
 E= -134.675640631331     Delta-E=       -0.000000035924 Rises=F Damp=F
 DIIS: error= 1.87D-06 at cycle   8 NSaved=   8.
 NSaved= 8 IEnMin= 8 EnMin= -134.675640631331     IErMin= 8 ErrMin= 1.87D-06
 ErrMax= 1.87D-06  0.00D+00 EMaxC= 1.00D-01 BMatC= 1.09D-09 BMatP= 1.96D-08
 IDIUse=1 WtCom= 1.00D+00 WtEn= 0.00D+00
 Coeff-Com: -0.287D-04 0.144D-03 0.667D-03 0.404D-02-0.124D-01-0.577D-01
 Coeff-Com:  0.814D-02 0.106D+01
 Coeff:     -0.287D-04 0.144D-03 0.667D-03 0.404D-02-0.124D-01-0.577D-01
 Coeff:      0.814D-02 0.106D+01
 Gap=     0.583 Goal=   None    Shift=    0.000
 RMSDP=1.44D-07 MaxDP=4.40D-06 DE=-3.59D-08 OVMax= 2.10D-05

 Cycle   9  Pass 1  IDiag  1:
 E= -134.675640633578     Delta-E=       -0.000000002247 Rises=F Damp=F
 DIIS: error= 5.25D-07 at cycle   9 NSaved=   9.
 NSaved= 9 IEnMin= 9 EnMin= -134.675640633578     IErMin= 9 ErrMin= 5.25D-07
 ErrMax= 5.25D-07  0.00D+00 EMaxC= 1.00D-01 BMatC= 8.61D-11 BMatP= 1.09D-09
 IDIUse=1 WtCom= 1.00D+00 WtEn= 0.00D+00
 Coeff-Com:  0.516D-05-0.525D-04-0.307D-03 0.377D-03 0.467D-02-0.615D-02
 Coeff-Com: -0.737D-01 0.125D+00 0.950D+00
 Coeff:      0.516D-05-0.525D-04-0.307D-03 0.377D-03 0.467D-02-0.615D-02
 Coeff:     -0.737D-01 0.125D+00 0.950D+00
 Gap=     0.583 Goal=   None    Shift=    0.000
 RMSDP=4.13D-08 MaxDP=1.31D-06 DE=-2.25D-09 OVMax= 4.10D-06

 Cycle  10  Pass 1  IDiag  1:
 E= -134.675640633712     Delta-E=       -0.000000000134 Rises=F Damp=F
 DIIS: error= 1.42D-07 at cycle  10 NSaved=  10.
 NSaved=10 IEnMin=10 EnMin= -134.675640633712     IErMin=10 ErrMin= 1.42D-07
 ErrMax= 1.42D-07  0.00D+00 EMaxC= 1.00D-01 BMatC= 3.17D-12 BMatP= 8.61D-11
 IDIUse=1 WtCom= 1.00D+00 WtEn= 0.00D+00
 Coeff-Com:  0.141D-05-0.579D-05-0.322D-04-0.292D-03 0.757D-03 0.382D-02
 Coeff-Com: -0.128D-02-0.659D-01 0.180D-01 0.105D+01
 Coeff:      0.141D-05-0.579D-05-0.322D-04-0.292D-03 0.757D-03 0.382D-02
 Coeff:     -0.128D-02-0.659D-01 0.180D-01 0.105D+01
 Gap=     0.583 Goal=   None    Shift=    0.000
 RMSDP=1.12D-08 MaxDP=3.45D-07 DE=-1.34D-10 OVMax= 1.04D-06

 Cycle  11  Pass 1  IDiag  1:
 E= -134.675640633719     Delta-E=       -0.000000000007 Rises=F Damp=F
 DIIS: error= 2.75D-08 at cycle  11 NSaved=  11.
 NSaved=11 IEnMin=11 EnMin= -134.675640633719     IErMin=11 ErrMin= 2.75D-08
 ErrMax= 2.75D-08  0.00D+00 EMaxC= 1.00D-01 BMatC= 7.41D-14 BMatP= 3.17D-12
 IDIUse=1 WtCom= 1.00D+00 WtEn= 0.00D+00
 Coeff-Com: -0.322D-06 0.250D-05 0.140D-04 0.265D-04-0.250D-03-0.292D-03
 Coeff-Com:  0.266D-02 0.345D-02-0.321D-01-0.126D+00 0.115D+01
 Coeff:     -0.322D-06 0.250D-05 0.140D-04 0.265D-04-0.250D-03-0.292D-03
 Coeff:      0.266D-02 0.345D-02-0.321D-01-0.126D+00 0.115D+01
 Gap=     0.583 Goal=   None    Shift=    0.000
 RMSDP=1.87D-09 MaxDP=6.71D-08 DE=-6.99D-12 OVMax= 2.08D-07

 SCF Done:  E(RHF) =  -134.675640634     A.U. after   11 cycles
            NFock= 11  Conv=0.19D-08     -V/T= 2.0004
 KE= 1.346160094352D+02 PE=-4.881250595043D+02 EE= 1.283723970687D+02
 Leave Link  502 at Tue Sep 30 16:59:06 2025, MaxMem=  4294967296 cpu:             143.7 elap:              13.3
 (Enter /software/sse/easybuild/prefix/software/Gaussian/16.C.01-avx2-nsc1/g16/l601.exe)
 Copying SCF densities to generalized density rwf, IOpCl= 0 IROHF=0.
 SCF density gives NOpUse=  2 NOpAll=  2.

 **********************************************************************

            Population analysis using the SCF Density.

 **********************************************************************

 Orbital symmetries:
 BldTbl:  Degeneracy threshold= 1.00D-02
       Occupied  (A') (A') (A') (A') (A') (A') (A") (A') (A') (A")
                 (A') (A') (A")
       Virtual   (A') (A") (A') (A') (A') (A") (A') (A") (A') (A')
                 (A') (A') (A") (A') (A') (A") (A') (A") (A") (A')
                 (A') (A") (A') (A") (A') (A') (A') (A') (A') (A")
                 (A') (A') (A") (A") (A") (A') (A") (A') (A") (A')
                 (A') (A") (A') (A") (A') (A') (A") (A') (A") (A')
                 (A') (A") (A') (A') (A') (A") (A') (A') (A") (A')
                 (A") (A") (A') (A') (A') (A") (A') (A') (A") (A')
                 (A') (A") (A") (A') (A') (A') (A") (A') (A") (A')
                 (A") (A') (A") (A') (A") (A') (A") (A') (A") (A')
                 (A') (A") (A') (A') (A") (A') (A") (A") (A') (A')
                 (A') (A") (A") (A') (A") (A') (A') (A') (A") (A')
                 (A') (A") (A") (A') (A") (A') (A') (A") (A") (A')
                 (A') (A") (A") (A') (A') (A") (A') (A") (A') (A")
                 (A') (A") (A') (A') (A') (A') (A") (A") (A') (A")
                 (A') (A") (A') (A") (A') (A') (A") (A') (A") (A')
                 (A') (A") (A') (A') (A") (A") (A') (A') (A") (A')
                 (A") (A') (A") (A') (A') (A") (A') (A') (A") (A')
                 (A') (A") (A') (A') (A") (A") (A') (A") (A') (A")
                 (A') (A") (A') (A') (A") (A") (A') (A') (A') (A')
                 (A') (A') (A") (A') (A") (A') (A") (A') (A") (A')
                 (A") (A") (A') (A') (A") (A') (A') (A") (A") (A')
                 (A") (A') (A') (A") (A') (A") (A') (A") (A') (A')
                 (A") (A') (A") (A") (A") (A') (A") (A') (A") (A")
                 (A') (A') (A") (A') (A') (A') (A") (A') (A") (A')
                 (A") (A') (A') (A") (A') (A") (A') (A') (A') (A")
                 (A') (A") (A') (A") (A') (A') (A") (A') (A") (A')
                 (A') (A") (A') (A") (A') (A") (A') (A') (A') (A")
                 (A") (A') (A") (A') (A') (A") (A') (A") (A") (A')
                 (A') (A") (A") (A') (A') (A") (A') (A') (A") (A')
                 (A') (A") (A') (A') (A") (A") (A') (A") (A') (A')
                 (A") (A') (A") (A') (A') (A") (A') (A') (A')
 The electronic state is 1-A'.
 Alpha  occ. eigenvalues --  -15.89492 -11.48407 -11.40154  -1.52362  -1.22972
 Alpha  occ. eigenvalues --   -1.06828  -0.98438  -0.97246  -0.85852  -0.81050
 Alpha  occ. eigenvalues --   -0.73243  -0.71990  -0.70178
 Alpha virt. eigenvalues --   -0.11866  -0.08327  -0.08305  -0.07566  -0.04817
 Alpha virt. eigenvalues --   -0.04628  -0.04224  -0.03953  -0.03439  -0.02331
 Alpha virt. eigenvalues --    0.00246   0.00450   0.00760   0.01046   0.02323
 Alpha virt. eigenvalues --    0.02350   0.03545   0.03750   0.04353   0.04913
 Alpha virt. eigenvalues --    0.06793   0.07925   0.07935   0.09284   0.09958
 Alpha virt. eigenvalues --    0.11160   0.13388   0.14360   0.15505   0.18216
 Alpha virt. eigenvalues --    0.18658   0.19449   0.19622   0.20291   0.20453
 Alpha virt. eigenvalues --    0.21022   0.21725   0.22210   0.22970   0.23265
 Alpha virt. eigenvalues --    0.23702   0.25283   0.25558   0.25690   0.25910
 Alpha virt. eigenvalues --    0.27641   0.28095   0.28860   0.29374   0.29675
 Alpha virt. eigenvalues --    0.30482   0.31109   0.33037   0.33705   0.35921
 Alpha virt. eigenvalues --    0.36222   0.37063   0.38199   0.38464   0.40550
 Alpha virt. eigenvalues --    0.41265   0.41507   0.42086   0.42768   0.43300
 Alpha virt. eigenvalues --    0.47291   0.48613   0.53609   0.54315   0.58264
 Alpha virt. eigenvalues --    0.59816   0.61101   0.63629   0.63995   0.64386
 Alpha virt. eigenvalues --    0.65429   0.65804   0.68425   0.69853   0.70698
 Alpha virt. eigenvalues --    0.70814   0.72763   0.73275   0.73711   0.75140
 Alpha virt. eigenvalues --    0.75711   0.76581   0.78180   0.78610   0.79052
 Alpha virt. eigenvalues --    0.79336   0.82009   0.82959   0.84083   0.84945
 Alpha virt. eigenvalues --    0.86236   0.88110   0.88627   0.89222   0.90422
 Alpha virt. eigenvalues --    0.93167   0.93729   0.95793   0.96570   0.96653
 Alpha virt. eigenvalues --    0.99095   1.00859   1.03471   1.03972   1.04473
 Alpha virt. eigenvalues --    1.06154   1.06525   1.07065   1.07098   1.09126
 Alpha virt. eigenvalues --    1.10688   1.12549   1.13104   1.14934   1.15143
 Alpha virt. eigenvalues --    1.18130   1.18746   1.22635   1.24000   1.26376
 Alpha virt. eigenvalues --    1.28093   1.28762   1.32210   1.32507   1.33223
 Alpha virt. eigenvalues --    1.36336   1.38616   1.39834   1.40404   1.42457
 Alpha virt. eigenvalues --    1.45267   1.45312   1.49418   1.50356   1.50700
 Alpha virt. eigenvalues --    1.52563   1.54082   1.54668   1.55000   1.56119
 Alpha virt. eigenvalues --    1.58296   1.60739   1.61488   1.65055   1.65338
 Alpha virt. eigenvalues --    1.68385   1.70554   1.74013   1.75278   1.75402
 Alpha virt. eigenvalues --    1.77662   1.78163   1.78908   1.80922   1.85183
 Alpha virt. eigenvalues --    1.85364   1.85649   1.89249   1.91870   1.96324
 Alpha virt. eigenvalues --    1.97529   2.00985   2.05107   2.06779   2.07096
 Alpha virt. eigenvalues --    2.08228   2.08573   2.12204   2.17741   2.18583
 Alpha virt. eigenvalues --    2.20960   2.22190   2.24145   2.25345   2.28519
 Alpha virt. eigenvalues --    2.33616   2.34399   2.36958   2.47009   2.48220
 Alpha virt. eigenvalues --    2.48954   2.49263   2.67862   2.82662   3.01349
 Alpha virt. eigenvalues --    3.10951   3.19394   3.21580   3.23273   3.26901
 Alpha virt. eigenvalues --    3.35572   3.39621   3.42389   3.43235   3.45558
 Alpha virt. eigenvalues --    3.45787   3.50340   3.52922   3.53836   3.56646
 Alpha virt. eigenvalues --    3.59543   3.60588   3.62007   3.63214   3.66448
 Alpha virt. eigenvalues --    3.75302   3.75897   3.76066   3.78409   3.79484
 Alpha virt. eigenvalues --    3.81529   3.84094   3.85928   3.90470   3.92065
 Alpha virt. eigenvalues --    3.93375   3.95162   3.95507   3.99116   4.00625
 Alpha virt. eigenvalues --    4.05124   4.05602   4.08184   4.09487   4.13208
 Alpha virt. eigenvalues --    4.13314   4.21361   4.25779   4.26166   4.31417
 Alpha virt. eigenvalues --    4.32155   4.32806   4.35765   4.39587   4.39931
 Alpha virt. eigenvalues --    4.40505   4.45305   4.49065   4.49715   4.52176
 Alpha virt. eigenvalues --    4.54040   4.59060   4.60734   4.63508   4.65141
 Alpha virt. eigenvalues --    4.65213   4.70831   4.71438   4.73177   4.73938
 Alpha virt. eigenvalues --    4.79061   4.79759   4.86012   4.87000   4.87569
 Alpha virt. eigenvalues --    4.91107   4.94607   4.94826   5.00312   5.01433
 Alpha virt. eigenvalues --    5.04892   5.06588   5.09092   5.09985   5.16437
 Alpha virt. eigenvalues --    5.22046   5.24303   5.31431   5.33016   5.36370
 Alpha virt. eigenvalues --    5.39346   5.41166   5.45334   5.57011   5.61036
 Alpha virt. eigenvalues --    5.61564   5.63780   5.64130   5.74518   5.77715
 Alpha virt. eigenvalues --    5.83476   5.86089   5.93216   5.93323   5.97910
 Alpha virt. eigenvalues --    6.03683   6.07074   6.15139   6.19970   6.20496
 Alpha virt. eigenvalues --    6.28306   6.40316   6.54628   6.59030   6.63474
 Alpha virt. eigenvalues --    6.64762   6.72758   6.95449   6.97887   7.60505
 Alpha virt. eigenvalues --    7.60775  17.55426  18.14321  19.40876
          Condensed to atoms (all electrons):
               1          2          3          4          5          6
     1  N    5.445746   0.159915   0.459456   0.398559   0.398559   0.010391
     2  C    0.159915   5.290392  -0.035726  -0.001679  -0.001679   0.374215
     3  H    0.459456  -0.035726   0.525599  -0.034715  -0.034715   0.001189
     4  H    0.398559  -0.001679  -0.034715   0.524776  -0.027840   0.009057
     5  H    0.398559  -0.001679  -0.034715  -0.027840   0.524776  -0.006465
     6  H    0.010391   0.374215   0.001189   0.009057  -0.006465   0.246440
     7  H    0.010391   0.374215   0.001189  -0.006465   0.009057   0.009836
     8  C   -0.018026   0.139159  -0.000604   0.001415   0.001415  -0.003391
     9  H   -0.003820   0.002249  -0.000051  -0.005053   0.002807   0.000368
    10  H   -0.001533   0.009174   0.000045  -0.000441  -0.000441   0.002382
    11  H   -0.003820   0.002249  -0.000051   0.002807  -0.005053  -0.000014
               7          8          9         10         11
     1  N    0.010391  -0.018026  -0.003820  -0.001533  -0.003820
     2  C    0.374215   0.139159   0.002249   0.009174   0.002249
     3  H    0.001189  -0.000604  -0.000051   0.000045  -0.000051
     4  H   -0.006465   0.001415  -0.005053  -0.000441   0.002807
     5  H    0.009057   0.001415   0.002807  -0.000441  -0.005053
     6  H    0.009836  -0.003391   0.000368   0.002382  -0.000014
     7  H    0.246440  -0.003391  -0.000014   0.002382   0.000368
     8  C   -0.003391   5.634162   0.400433   0.368414   0.400433
     9  H   -0.000014   0.400433   0.265286   0.016641   0.010809
    10  H    0.002382   0.368414   0.016641   0.228632   0.016641
    11  H    0.000368   0.400433   0.010809   0.016641   0.265286
 Mulliken charges:
               1
     1  N    0.144182
     2  C   -0.312485
     3  H    0.118382
     4  H    0.139579
     5  H    0.139579
     6  H    0.355992
     7  H    0.355992
     8  C   -0.920016
     9  H    0.310346
    10  H    0.358104
    11  H    0.310346
 Sum of Mulliken charges =   1.00000
 Mulliken charges with hydrogens summed into heavy atoms:
               1
     1  N    0.541723
     2  C    0.399498
     8  C    0.058780
 DipInt: DoE/N= T F RetVal/Mat= T F Init=T NMatP=  1 IDeriv=0 Min/MaxMlt=  0  4
 Entering OneElI...
 OneElI was handed  4294625769 working-precision words.
 Multipole integrals L=0 to 4 MinM= 0 MaxM= 0.
 Requested accuracy = 0.1000D-12
 ShPair: Thresh= 1.00D-13 NBox=     0 BxSize= 0.00D+00 RnKept= 7.93D+00
         NSMCal=                 6555 NSMKep=                6550
 PrmmSu-InSpLW:  IPartL=    0 NPrtUS=    1 NPrtUL=    1 DoSpLW=F IThBeg=    0 IThEnd=    0 NThAct=    1.
 PrSmSu:  IncTry=   512 NBBP=           6550 NTPThr=   100 NPartT=    1 Incr=          65 LDynOK=F GPUOK=F.
 PrsmSu:  NPrtUS=   1 ThrOK=F IAlg=2 LenDen=           0 ISkipM=0 DoSpLW=F IThBeg=    0 IThEnd=    0.
 Prism:   IPart=     0 DynPar=F LinDyn=F Incr=          65.
 PRISM was handed  4294213438 working-precision words and  6550 shell-pairs
 IPart=  0 NShTot=        6550 NBatch=          76 AvBLen=        86.2
 PrsmSu-ThDecC:  IPartSL=    0    0 NPrtUSL=    1    1 IThBeg=    0 IThEnd=    0 CPU=   -1 GPU=   -1 NThAct=    1.
 PrSmSu:  NxtVal=             66.
 Electronic moments (au):
        -26.00000000         -1.47398486         -0.37371680          0.00000000
       -132.73476468        -45.69109626        -27.99556587         -6.73283316
         -0.00000000         -0.00000000        -61.46843891        -18.56039597
          0.00000000          0.65239214         47.79268783          0.00000000
         -9.07770945          0.51150248         -0.00000000          0.00000000
      -1353.30136241       -238.46166886       -121.59874092        -61.06488966
         -0.00000000        -10.64920366         -0.00000000         -0.00000000
          0.00000000       -182.74039966       -141.38062169        -82.52709855
          0.00000000          0.00000000          7.02025984
 Electronic spatial extent (au):  <R**2>=            206.4214
 DipInt: DoE/N= F T RetVal/Mat= T F Init=T NMatP=  1 IDeriv=0 Min/MaxMlt=  0  4
 Nuclear    moments (au):
         27.00000000         -0.00000000          0.00000000          0.00000000
        125.91140101         34.09496834         15.78336664          8.23928149
          0.00000000          0.00000000         38.20839377         15.30710717
          0.00000000         -6.39835011        -49.75589024          0.00000000
          3.31685918         -3.79045055          0.00000000          0.00000000
       1023.25747029        100.13735443         41.74714710         59.18537962
          0.00000000         11.69584714          0.00000000          0.00000000
          0.00000000         98.21973476         62.05020393         56.42866615
          0.00000000          0.00000000         -6.12353677
 Total      moments (au):
          1.00000000         -1.47398486         -0.37371680          0.00000000
         -6.82336367        -11.59612792        -12.21219923          1.50644833
         -0.00000000         -0.00000000        -23.26004513         -3.25328880
          0.00000000         -5.74595797         -1.96320241          0.00000000
         -5.76085027         -3.27894807         -0.00000000          0.00000000
       -330.04389212       -138.32431442        -79.85159382         -1.87951005
         -0.00000000          1.04664348         -0.00000000         -0.00000000
          0.00000000        -84.52066491        -79.33041776        -26.09843239
          0.00000000          0.00000000          0.89672308
 Traceless Quadrup. (au):
          3.38719994         -1.38556431         -2.00163563          1.50644833
         -0.00000000         -0.00000000
 Charge=              1.0000 electrons
 Dipole moment (field-independent basis, Debye):
    X=             -3.7465    Y=             -0.9499    Z=              0.0000  Tot=              3.8650
 Quadrupole moment (field-independent basis, Debye-Ang):
   XX=             -9.1777   YY=            -15.5972   ZZ=            -16.4258
   XY=              2.0262   XZ=             -0.0000   YZ=             -0.0000
 Traceless Quadrupole moment (field-independent basis, Debye-Ang):
   XX=              4.5559   YY=             -1.8636   ZZ=             -2.6923
   XY=              2.0262   XZ=             -0.0000   YZ=             -0.0000
 Octapole moment (field-independent basis, Debye-Ang**2):
  XXX=            -16.5556  YYY=             -2.3156  ZZZ=              0.0000  XYY=             -4.0898
  XXY=             -1.3973  XXZ=              0.0000  XZZ=             -4.1004  YZZ=             -2.3338
  YYZ=             -0.0000  XYZ=              0.0000
 Hexadecapole moment (field-independent basis, Debye-Ang**3):
 XXXX=           -124.3104 YYYY=            -52.0996 ZZZZ=            -30.0759 XXXY=             -0.7079
 XXXZ=             -0.0000 YYYX=              0.3942 YYYZ=             -0.0000 ZZZX=             -0.0000
 ZZZY=              0.0000 XXYY=            -31.8345 XXZZ=            -29.8796 YYZZ=             -9.8299
 XXYZ=              0.0000 YYXZ=              0.0000 ZZXY=              0.3377
 N-N= 9.046101236668D+01 E-N=-4.881250600452D+02  KE= 1.346160094352D+02
 Symmetry A'   KE= 1.277210823692D+02
 Symmetry A"   KE= 6.894927066008D+00
 SetAtRh:  ITypeU=  23 NETotI=      -1 ICharg=  0 NETot=      27.
 StAtR1:  I=    1 I1=    1 IA=  7 C=   7.0 OKShel=TTT
                                                  SSP
                                                  223
 StAtR1:  I=    2 I1=    2 IA=  6 C=   6.0 OKShel=TTT
                                                  SSP
                                                  222
 StAtR1:  I=    3 I1=    3 IA=  1 C=   1.0 OKShel=T
                                                  S
                                                  1
 StAtR1:  I=    4 I1=    4 IA=  1 C=   1.0 OKShel=T
                                                  S
                                                  1
 StAtR1:  I=    5 I1=    5 IA=  1 C=   1.0 OKShel=T
                                                  S
                                                  1
 StAtR1:  I=    6 I1=    6 IA=  1 C=   1.0 OKShel=T
                                                  S
                                                  1
 StAtR1:  I=    7 I1=    7 IA=  1 C=   1.0 OKShel=T
                                                  S
                                                  1
 StAtR1:  I=    8 I1=    8 IA=  6 C=   6.0 OKShel=TTT
                                                  SSP
                                                  222
 StAtR1:  I=    9 I1=    9 IA=  1 C=   1.0 OKShel=T
                                                  S
                                                  1
 StAtR1:  I=   10 I1=   10 IA=  1 C=   1.0 OKShel=T
                                                  S
                                                  1
 StAtR1:  I=   11 I1=   11 IA=  1 C=   1.0 OKShel=T
                                                  S
                                                  1
          I=    1 IA=  7 I1=    1 NAtG=22 NE=   7.000 C=   7.000 Err= 6.08D-13
          I=    2 IA=  6 I1=    2 NAtG=23 NE=   6.000 C=   6.000 Err= 1.75D-11
          I=    3 IA=  1 I1=    3 NAtG=20 NE=   1.000 C=   1.000 Err= 2.80D-12
          I=    4 IA=  1 I1=    4 NAtG=20 NE=   1.000 C=   1.000 Err= 2.80D-12
          I=    5 IA=  1 I1=    5 NAtG=20 NE=   1.000 C=   1.000 Err= 2.80D-12
          I=    6 IA=  1 I1=    6 NAtG=20 NE=   1.000 C=   1.000 Err= 2.80D-12
          I=    7 IA=  1 I1=    7 NAtG=20 NE=   1.000 C=   1.000 Err= 2.80D-12
          I=    8 IA=  6 I1=    8 NAtG=23 NE=   6.000 C=   6.000 Err= 1.75D-11
          I=    9 IA=  1 I1=    9 NAtG=20 NE=   1.000 C=   1.000 Err= 2.80D-12
          I=   10 IA=  1 I1=   10 NAtG=20 NE=   1.000 C=   1.000 Err= 2.80D-12
          I=   11 IA=  1 I1=   11 NAtG=20 NE=   1.000 C=   1.000 Err= 2.80D-12
 Pruned (  99, 590) grid will be used in numerical quadrature.
 IPart=  0 IRanGd=          0 ScrnBf=T ScrnGd=T RCrit=4.00D+00 DoMicB=T.
 CutRad = 1000.00    CtRdIn =    0.00    XCrit =  15.00   ICut = 0
 Pruned (  99, 590) grid will be used in numerical quadrature.
 Pruned (  99, 590) grid will be used in numerical quadrature.
 IPart=  1 IRanGd=          0 ScrnBf=T ScrnGd=T RCrit=4.00D+00 DoMicB=T.
 CutRad = 1000.00    CtRdIn =    0.00    XCrit =  15.00   ICut = 0
 IPart= 12 IRanGd=          0 ScrnBf=T ScrnGd=T RCrit=4.00D+00 DoMicB=T.
 CutRad = 1000.00    CtRdIn =    0.00    XCrit =  15.00   ICut = 0
 Pruned (  99, 590) grid will be used in numerical quadrature.
 Pruned (  99, 590) grid will be used in numerical quadrature.
 Pruned (  99, 590) grid will be used in numerical quadrature.
 IPart=  0 Atom number   1 atomic number  7 has       23416 grid points.
 Pruned (  99, 590) grid will be used in numerical quadrature.
 IPart=  5 IRanGd=          0 ScrnBf=T ScrnGd=T RCrit=4.00D+00 DoMicB=T.
 IPart=  8 IRanGd=          0 ScrnBf=T ScrnGd=T RCrit=4.00D+00 DoMicB=T.
 Pruned (  99, 590) grid will be used in numerical quadrature.
 Pruned (  99, 590) grid will be used in numerical quadrature.
 IPart=  0 Atom   1 batch    1 overlaps   11 atoms,   111 shells and    11 DB shells.   NGrid=      2408
 IPart= 10 IRanGd=          0 ScrnBf=T ScrnGd=T RCrit=4.00D+00 DoMicB=T.
 IPart= 13 IRanGd=          0 ScrnBf=T ScrnGd=T RCrit=4.00D+00 DoMicB=T.
 Pruned (  99, 590) grid will be used in numerical quadrature.
 CutRad = 1000.00    CtRdIn =    0.00    XCrit =  15.00   ICut = 0
 Symmetry reduced    86 angular points to    86 for atom    1.
 Pruned (  99, 590) grid will be used in numerical quadrature.
 CutRad = 1000.00    CtRdIn =    0.00    XCrit =  15.00   ICut = 0
 Pruned (  99, 590) grid will be used in numerical quadrature.
 IPart= 11 IRanGd=          0 ScrnBf=T ScrnGd=T RCrit=4.00D+00 DoMicB=T.
 Pruned (  99, 590) grid will be used in numerical quadrature.
 CutRad = 1000.00    CtRdIn =    0.00    XCrit =  15.00   ICut = 0
 Pruned (  99, 590) grid will be used in numerical quadrature.
 IPart=  6 IRanGd=          0 ScrnBf=T ScrnGd=T RCrit=4.00D+00 DoMicB=T.
 CutRad = 1000.00    CtRdIn =    0.00    XCrit =  15.00   ICut = 0
 IPart=  7 IRanGd=          0 ScrnBf=T ScrnGd=T RCrit=4.00D+00 DoMicB=T.
 CutRad = 1000.00    CtRdIn =    0.00    XCrit =  15.00   ICut = 0
 IPart=  3 IRanGd=          0 ScrnBf=T ScrnGd=T RCrit=4.00D+00 DoMicB=T.
 CutRad = 1000.00    CtRdIn =    0.00    XCrit =  15.00   ICut = 0
 Pruned (  99, 590) grid will be used in numerical quadrature.
 CutRad = 1000.00    CtRdIn =    0.00    XCrit =  15.00   ICut = 0
 CutRad = 1000.00    CtRdIn =    0.00    XCrit =  15.00   ICut = 0
 IPart=  9 IRanGd=          0 ScrnBf=T ScrnGd=T RCrit=4.00D+00 DoMicB=T.
 CutRad = 1000.00    CtRdIn =    0.00    XCrit =  15.00   ICut = 0
 IPart=  2 IRanGd=          0 ScrnBf=T ScrnGd=T RCrit=4.00D+00 DoMicB=T.
 CutRad = 1000.00    CtRdIn =    0.00    XCrit =  15.00   ICut = 0
 Pruned (  99, 590) grid will be used in numerical quadrature.
 Pruned (  99, 590) grid will be used in numerical quadrature.
 IPart= 14 IRanGd=          0 ScrnBf=T ScrnGd=T RCrit=4.00D+00 DoMicB=T.
 CutRad = 1000.00    CtRdIn =    0.00    XCrit =  15.00   ICut = 0
 IPart=  4 IRanGd=          0 ScrnBf=T ScrnGd=T RCrit=4.00D+00 DoMicB=T.
 IPart= 15 IRanGd=          0 ScrnBf=T ScrnGd=T RCrit=4.00D+00 DoMicB=T.
 Pruned (  99, 590) grid will be used in numerical quadrature.
 CutRad = 1000.00    CtRdIn =    0.00    XCrit =  15.00   ICut = 0
 Pruned (  99, 590) grid will be used in numerical quadrature.
 IPart=  1 Atom number   1 atomic number  7 has       23416 grid points.
 IPart= 12 Atom number   1 atomic number  7 has       23416 grid points.
 IPart=  1 Atom   1 batch    2 overlaps   11 atoms,   111 shells and    11 DB shells.   NGrid=      2522
 IPart= 12 Atom   1 batch    3 overlaps   11 atoms,   112 shells and    11 DB shells.   NGrid=      2114
 Symmetry reduced   194 angular points to   194 for atom    1.
 Symmetry reduced   302 angular points to   302 for atom    1.
 Pruned (  99, 590) grid will be used in numerical quadrature.
 IPart=  5 Atom number   1 atomic number  7 has       23416 grid points.
 IPart=  5 Atom   1 batch    4 overlaps   11 atoms,   113 shells and    11 DB shells.   NGrid=      1180
 Pruned (  99, 590) grid will be used in numerical quadrature.
 Symmetry reduced   590 angular points to   590 for atom    1.
 IPart= 13 Atom number   1 atomic number  7 has       23416 grid points.
 IPart= 13 Atom   1 batch    5 overlaps   11 atoms,   114 shells and    11 DB shells.   NGrid=      1180
 CutRad = 1000.00    CtRdIn =    0.00    XCrit =  15.00   ICut = 0
 Symmetry reduced   590 angular points to   590 for atom    1.
 Pruned (  99, 590) grid will be used in numerical quadrature.
 IPart= 11 Atom number   1 atomic number  7 has       23416 grid points.
 Pruned (  99, 590) grid will be used in numerical quadrature.
 IPart= 11 Atom   1 batch    6 overlaps   11 atoms,   114 shells and    11 DB shells.   NGrid=      1180
 IPart=  6 Atom number   1 atomic number  7 has       23416 grid points.
 Symmetry reduced   590 angular points to   590 for atom    1.
 IPart=  6 Atom   1 batch    7 overlaps   11 atoms,   114 shells and    11 DB shells.   NGrid=      1180
 Pruned (  99, 590) grid will be used in numerical quadrature.
 Symmetry reduced   590 angular points to   590 for atom    1.
 IPart= 10 Atom number   1 atomic number  7 has       23416 grid points.
 Pruned (  99, 590) grid will be used in numerical quadrature.
 IPart= 10 Atom   1 batch    8 overlaps   11 atoms,   114 shells and    11 DB shells.   NGrid=      1180
 IPart=  3 Atom number   1 atomic number  7 has       23416 grid points.
 Pruned (  99, 590) grid will be used in numerical quadrature.
 Pruned (  99, 590) grid will be used in numerical quadrature.
 IPart=  8 Atom number   1 atomic number  7 has       23416 grid points.
 Pruned (  99, 590) grid will be used in numerical quadrature.
 IPart=  8 Atom   1 batch   10 overlaps   11 atoms,   114 shells and    11 DB shells.   NGrid=      1180
 IPart=  2 Atom number   1 atomic number  7 has       23416 grid points.
 IPart=  9 Atom number   1 atomic number  7 has       23416 grid points.
 Symmetry reduced   590 angular points to   590 for atom    1.
 IPart=  9 Atom   1 batch   11 overlaps   11 atoms,   114 shells and    11 DB shells.   NGrid=      1180
 IPart=  2 Atom   1 batch   12 overlaps   11 atoms,   113 shells and    11 DB shells.   NGrid=       590
 IPart=  3 Atom   1 batch    9 overlaps   11 atoms,   114 shells and    11 DB shells.   NGrid=      1180
 Pruned (  99, 590) grid will be used in numerical quadrature.
 Symmetry reduced   590 angular points to   590 for atom    1.
 IPart= 14 Atom number   1 atomic number  7 has       23416 grid points.
 Symmetry reduced   590 angular points to   590 for atom    1.
 Symmetry reduced   590 angular points to   590 for atom    1.
 IPart= 14 Atom   1 batch   13 overlaps   11 atoms,   113 shells and    11 DB shells.   NGrid=       604
 Symmetry reduced   590 angular points to   590 for atom    1.
 Symmetry reduced   302 angular points to   302 for atom    1.
 Pruned (  99, 590) grid will be used in numerical quadrature.
 IPart= 15 Atom number   1 atomic number  7 has       23416 grid points.
 IPart= 15 Atom   1 batch   14 overlaps   11 atoms,   113 shells and    11 DB shells.   NGrid=       604
 Symmetry reduced   302 angular points to   302 for atom    1.
 Pruned (  99, 590) grid will be used in numerical quadrature.
 IPart=  7 Atom number   1 atomic number  7 has       23416 grid points.
 IPart=  7 Atom   1 batch   15 overlaps   11 atoms,   111 shells and    11 DB shells.   NGrid=       604
 Symmetry reduced   302 angular points to   302 for atom    1.
 Pruned (  99, 590) grid will be used in numerical quadrature.
 IPart=  4 Atom number   1 atomic number  7 has       23416 grid points.
 IPart=  4 Atom   1 batch   16 overlaps   11 atoms,   108 shells and    11 DB shells.   NGrid=       604
 Symmetry reduced   302 angular points to   302 for atom    1.
 IPart=  4 Atom   1 batch   17 overlaps   11 atoms,   101 shells and    11 DB shells.   NGrid=       604
 IPart=  7 Atom   1 batch   18 overlaps   11 atoms,    88 shells and    11 DB shells.   NGrid=       604
 IPart= 15 Atom   1 batch   19 overlaps   11 atoms,    66 shells and    11 DB shells.   NGrid=       604
 IPart= 14 Atom   1 batch   20 overlaps   11 atoms,    44 shells and    10 DB shells.   NGrid=       604
 IPart=  2 Atom   1 batch   21 overlaps   11 atoms,    27 shells and     6 DB shells.   NGrid=       604
 Symmetry reduced   302 angular points to   302 for atom    1.
 IPart= 14 Atom   1 batch   22 overlaps   11 atoms,    12 shells and     0 DB shells.   NGrid=       604
 IPart= 15 Atom   1 batch   23 overlaps   11 atoms,     5 shells and     0 DB shells.   NGrid=       302
 Pruned (  99, 590) grid will be used in numerical quadrature.
 IPart=  2 Atom number   2 atomic number  6 has       23114 grid points.
 IPart=  2 Atom   2 batch    1 overlaps   11 atoms,   114 shells and    11 DB shells.   NGrid=      2408
 Symmetry reduced    86 angular points to    86 for atom    2.
 Pruned (  99, 590) grid will be used in numerical quadrature.
 Pruned (  99, 590) grid will be used in numerical quadrature.
 IPart=  7 Atom number   2 atomic number  6 has       23114 grid points.
 IPart= 15 Atom number   2 atomic number  6 has       23114 grid points.
 IPart=  7 Atom   2 batch    2 overlaps   11 atoms,   114 shells and    11 DB shells.   NGrid=      2522
 IPart= 15 Atom   2 batch    3 overlaps   11 atoms,   114 shells and    11 DB shells.   NGrid=      2114
 Symmetry reduced   194 angular points to   194 for atom    2.
 Symmetry reduced   302 angular points to   302 for atom    2.
 Pruned (  99, 590) grid will be used in numerical quadrature.
 IPart=  4 Atom number   2 atomic number  6 has       23114 grid points.
 IPart=  4 Atom   2 batch    4 overlaps   11 atoms,   114 shells and    11 DB shells.   NGrid=      1180
 Symmetry reduced   590 angular points to   590 for atom    2.
 Pruned (  99, 590) grid will be used in numerical quadrature.
 IPart= 14 Atom number   2 atomic number  6 has       23114 grid points.
 IPart= 14 Atom   2 batch    5 overlaps   11 atoms,   114 shells and    11 DB shells.   NGrid=      1180
 Symmetry reduced   590 angular points to   590 for atom    2.
 Pruned (  99, 590) grid will be used in numerical quadrature.
 IPart=  9 Atom number   2 atomic number  6 has       23114 grid points.
 IPart=  9 Atom   2 batch    6 overlaps   11 atoms,   114 shells and    11 DB shells.   NGrid=      1180
 Symmetry reduced   590 angular points to   590 for atom    2.
 Pruned (  99, 590) grid will be used in numerical quadrature.
 Pruned (  99, 590) grid will be used in numerical quadrature.
 IPart=  5 Atom number   2 atomic number  6 has       23114 grid points.
 IPart=  8 Atom number   2 atomic number  6 has       23114 grid points.
 IPart=  5 Atom   2 batch    7 overlaps   11 atoms,   114 shells and    11 DB shells.   NGrid=      1180
 IPart=  8 Atom   2 batch    8 overlaps   11 atoms,   114 shells and    11 DB shells.   NGrid=      1180
 Pruned (  99, 590) grid will be used in numerical quadrature.
 Symmetry reduced   590 angular points to   590 for atom    2.
 IPart= 13 Atom number   2 atomic number  6 has       23114 grid points.
 Symmetry reduced   590 angular points to   590 for atom    2.
 IPart= 13 Atom   2 batch    9 overlaps   11 atoms,   114 shells and    11 DB shells.   NGrid=      1180
 Symmetry reduced   590 angular points to   590 for atom    2.
 Pruned (  99, 590) grid will be used in numerical quadrature.
 IPart= 11 Atom number   2 atomic number  6 has       23114 grid points.
 IPart= 11 Atom   2 batch   10 overlaps   11 atoms,   114 shells and    11 DB shells.   NGrid=      1180
 Symmetry reduced   590 angular points to   590 for atom    2.
 Pruned (  99, 590) grid will be used in numerical quadrature.
 IPart=  3 Atom number   2 atomic number  6 has       23114 grid points.
 IPart=  3 Atom   2 batch   11 overlaps   11 atoms,   113 shells and    11 DB shells.   NGrid=      1180
 Symmetry reduced   590 angular points to   590 for atom    2.
 Pruned (  99, 590) grid will be used in numerical quadrature.
 IPart= 10 Atom number   2 atomic number  6 has       23114 grid points.
 IPart= 10 Atom   2 batch   12 overlaps   11 atoms,   113 shells and    11 DB shells.   NGrid=       590
 Symmetry reduced   590 angular points to   590 for atom    2.
 Pruned (  99, 590) grid will be used in numerical quadrature.
 IPart=  6 Atom number   2 atomic number  6 has       23114 grid points.
 IPart=  6 Atom   2 batch   13 overlaps   11 atoms,   113 shells and    11 DB shells.   NGrid=       604
 Symmetry reduced   302 angular points to   302 for atom    2.
 IPart= 10 Atom   2 batch   14 overlaps   11 atoms,   113 shells and    11 DB shells.   NGrid=       604
 IPart=  6 Atom   2 batch   15 overlaps   11 atoms,   108 shells and    11 DB shells.   NGrid=       604
 Symmetry reduced   302 angular points to   302 for atom    2.
 IPart=  4 Atom   2 batch   16 overlaps   11 atoms,   101 shells and    11 DB shells.   NGrid=       604
 Symmetry reduced   302 angular points to   302 for atom    2.
 IPart= 14 Atom   2 batch   17 overlaps   11 atoms,    82 shells and    11 DB shells.   NGrid=       604
 Symmetry reduced   302 angular points to   302 for atom    2.
 Pruned (  99, 590) grid will be used in numerical quadrature.
 IPart= 12 Atom number   2 atomic number  6 has       23114 grid points.
 IPart= 12 Atom   2 batch   18 overlaps   11 atoms,    68 shells and    11 DB shells.   NGrid=       604
 Symmetry reduced   302 angular points to   302 for atom    2.
 Pruned (  99, 590) grid will be used in numerical quadrature.
 IPart=  0 Atom number   2 atomic number  6 has       23114 grid points.
 IPart=  0 Atom   2 batch   19 overlaps   11 atoms,    46 shells and    11 DB shells.   NGrid=       604
 Symmetry reduced   302 angular points to   302 for atom    2.
 IPart= 14 Atom   2 batch   20 overlaps   11 atoms,    33 shells and     7 DB shells.   NGrid=       604
 IPart= 14 Atom   2 batch   21 overlaps   11 atoms,    14 shells and     0 DB shells.   NGrid=       604
 IPart= 12 Atom   2 batch   22 overlaps   11 atoms,     8 shells and     0 DB shells.   NGrid=       604
 Pruned (  99, 590) grid will be used in numerical quadrature.
 IPart=  0 Atom number   3 atomic number  1 has       23466 grid points.
 IPart=  0 Atom   3 batch    1 overlaps   11 atoms,   102 shells and    11 DB shells.   NGrid=      2838
 Symmetry reduced    86 angular points to    86 for atom    3.
 Pruned (  99, 590) grid will be used in numerical quadrature.
 Pruned (  99, 590) grid will be used in numerical quadrature.
 IPart=  6 Atom number   3 atomic number  1 has       23466 grid points.
 IPart= 14 Atom number   3 atomic number  1 has       23466 grid points.
 IPart=  6 Atom   3 batch    2 overlaps   11 atoms,   104 shells and    11 DB shells.   NGrid=      1552
 Pruned (  99, 590) grid will be used in numerical quadrature.
 IPart= 14 Atom   3 batch    3 overlaps   11 atoms,   106 shells and    11 DB shells.   NGrid=      2416
 IPart= 12 Atom number   3 atomic number  1 has       23466 grid points.
 Symmetry reduced   302 angular points to   302 for atom    3.
 Symmetry reduced   194 angular points to   194 for atom    3.
 IPart= 12 Atom   3 batch    4 overlaps   11 atoms,   106 shells and    11 DB shells.   NGrid=      1180
 Symmetry reduced   590 angular points to   590 for atom    3.
 Pruned (  99, 590) grid will be used in numerical quadrature.
 IPart=  4 Atom number   3 atomic number  1 has       23466 grid points.
 IPart=  4 Atom   3 batch    5 overlaps   11 atoms,   108 shells and    11 DB shells.   NGrid=      1180
 Symmetry reduced   590 angular points to   590 for atom    3.
 Pruned (  99, 590) grid will be used in numerical quadrature.
 IPart=  3 Atom number   3 atomic number  1 has       23466 grid points.
 IPart=  3 Atom   3 batch    6 overlaps   11 atoms,   111 shells and    11 DB shells.   NGrid=      1180
 Symmetry reduced   590 angular points to   590 for atom    3.
 Pruned (  99, 590) grid will be used in numerical quadrature.
 IPart= 10 Atom number   3 atomic number  1 has       23466 grid points.
 IPart= 10 Atom   3 batch    7 overlaps   11 atoms,   111 shells and    11 DB shells.   NGrid=      1180
 Symmetry reduced   590 angular points to   590 for atom    3.
 Pruned (  99, 590) grid will be used in numerical quadrature.
 IPart=  9 Atom number   3 atomic number  1 has       23466 grid points.
 IPart=  9 Atom   3 batch    8 overlaps   11 atoms,   111 shells and    11 DB shells.   NGrid=      1180
 Symmetry reduced   590 angular points to   590 for atom    3.
 Pruned (  99, 590) grid will be used in numerical quadrature.
 IPart= 11 Atom number   3 atomic number  1 has       23466 grid points.
 IPart= 11 Atom   3 batch    9 overlaps   11 atoms,   113 shells and    11 DB shells.   NGrid=      1180
 Symmetry reduced   590 angular points to   590 for atom    3.
 Pruned (  99, 590) grid will be used in numerical quadrature.
 IPart=  1 Atom number   2 atomic number  6 has       23114 grid points.
 Pruned (  99, 590) grid will be used in numerical quadrature.
 IPart=  1 Atom number   3 atomic number  1 has       23466 grid points.
 IPart=  1 Atom   3 batch   10 overlaps   11 atoms,   114 shells and    11 DB shells.   NGrid=      1180
 Symmetry reduced   590 angular points to   590 for atom    3.
 Pruned (  99, 590) grid will be used in numerical quadrature.
 IPart=  8 Atom number   3 atomic number  1 has       23466 grid points.
 IPart=  8 Atom   3 batch   11 overlaps   11 atoms,   114 shells and    11 DB shells.   NGrid=      1180
 Symmetry reduced   590 angular points to   590 for atom    3.
 Pruned (  99, 590) grid will be used in numerical quadrature.
 IPart=  5 Atom number   3 atomic number  1 has       23466 grid points.
 IPart=  5 Atom   3 batch   12 overlaps   11 atoms,   114 shells and    11 DB shells.   NGrid=      1180
 Symmetry reduced   590 angular points to   590 for atom    3.
 Pruned (  99, 590) grid will be used in numerical quadrature.
 IPart= 13 Atom number   3 atomic number  1 has       23466 grid points.
 IPart= 13 Atom   3 batch   13 overlaps   11 atoms,   114 shells and    11 DB shells.   NGrid=       604
 Symmetry reduced   302 angular points to   302 for atom    3.
 Pruned (  99, 590) grid will be used in numerical quadrature.
 IPart= 15 Atom number   3 atomic number  1 has       23466 grid points.
 IPart= 15 Atom   3 batch   14 overlaps   11 atoms,   113 shells and    11 DB shells.   NGrid=       604
 Symmetry reduced   302 angular points to   302 for atom    3.
 IPart= 13 Atom   3 batch   15 overlaps   11 atoms,   110 shells and    11 DB shells.   NGrid=       604
 Pruned (  99, 590) grid will be used in numerical quadrature.
 IPart=  2 Atom number   3 atomic number  1 has       23466 grid points.
 IPart=  2 Atom   3 batch   16 overlaps   11 atoms,   106 shells and    11 DB shells.   NGrid=       604
 Symmetry reduced   302 angular points to   302 for atom    3.
 IPart= 12 Atom   3 batch   17 overlaps   11 atoms,    95 shells and    11 DB shells.   NGrid=       604
 Symmetry reduced   302 angular points to   302 for atom    3.
 Pruned (  99, 590) grid will be used in numerical quadrature.
 IPart=  7 Atom number   3 atomic number  1 has       23466 grid points.
 IPart=  7 Atom   3 batch   18 overlaps   11 atoms,    80 shells and    11 DB shells.   NGrid=       604
 Symmetry reduced   302 angular points to   302 for atom    3.
 IPart=  4 Atom   3 batch   19 overlaps   11 atoms,    54 shells and    10 DB shells.   NGrid=       604
 Symmetry reduced   302 angular points to   302 for atom    3.
 IPart=  3 Atom   3 batch   20 overlaps   11 atoms,    34 shells and     7 DB shells.   NGrid=       604
 Symmetry reduced   302 angular points to   302 for atom    3.
 IPart=  4 Atom   3 batch   21 overlaps   11 atoms,    13 shells and     0 DB shells.   NGrid=       604
 IPart= 15 Atom   3 batch   22 overlaps   11 atoms,     7 shells and     0 DB shells.   NGrid=       604
 Pruned (  99, 590) grid will be used in numerical quadrature.
 IPart=  3 Atom number   4 atomic number  1 has       23466 grid points.
 IPart=  3 Atom   4 batch    1 overlaps   11 atoms,   108 shells and    11 DB shells.   NGrid=      2838
 Symmetry reduced    86 angular points to    86 for atom    4.
 Pruned (  99, 590) grid will be used in numerical quadrature.
 IPart=  7 Atom number   4 atomic number  1 has       23466 grid points.
 IPart=  7 Atom   4 batch    2 overlaps   11 atoms,   110 shells and    11 DB shells.   NGrid=      1552
 Symmetry reduced   194 angular points to   194 for atom    4.
 Pruned (  99, 590) grid will be used in numerical quadrature.
 Pruned (  99, 590) grid will be used in numerical quadrature.
 IPart= 10 Atom number   4 atomic number  1 has       23466 grid points.
 IPart=  4 Atom number   4 atomic number  1 has       23466 grid points.
 IPart= 10 Atom   4 batch    3 overlaps   11 atoms,   111 shells and    11 DB shells.   NGrid=      2416
 Pruned (  99, 590) grid will be used in numerical quadrature.
 Symmetry reduced   302 angular points to   302 for atom    4.
 IPart=  4 Atom   4 batch    4 overlaps   11 atoms,   111 shells and    11 DB shells.   NGrid=      1180
 IPart= 13 Atom number   4 atomic number  1 has       23466 grid points.
 Symmetry reduced   590 angular points to   590 for atom    4.
 IPart= 13 Atom   4 batch    5 overlaps   11 atoms,   112 shells and    11 DB shells.   NGrid=      1180
 Symmetry reduced   590 angular points to   590 for atom    4.
 Pruned (  99, 590) grid will be used in numerical quadrature.
 IPart=  2 Atom number   4 atomic number  1 has       23466 grid points.
 IPart=  2 Atom   4 batch    6 overlaps   11 atoms,   113 shells and    11 DB shells.   NGrid=      1180
 Symmetry reduced   590 angular points to   590 for atom    4.
 Pruned (  99, 590) grid will be used in numerical quadrature.
 IPart=  6 Atom number   4 atomic number  1 has       23466 grid points.
 IPart=  6 Atom   4 batch    7 overlaps   11 atoms,   114 shells and    11 DB shells.   NGrid=      1180
 Symmetry reduced   590 angular points to   590 for atom    4.
 Pruned (  99, 590) grid will be used in numerical quadrature.
 Pruned (  99, 590) grid will be used in numerical quadrature.
 IPart= 12 Atom number   4 atomic number  1 has       23466 grid points.
 IPart= 11 Atom number   4 atomic number  1 has       23466 grid points.
 IPart= 12 Atom   4 batch    8 overlaps   11 atoms,   114 shells and    11 DB shells.   NGrid=      1180
 IPart= 11 Atom   4 batch    9 overlaps   11 atoms,   114 shells and    11 DB shells.   NGrid=      1180
 Symmetry reduced   590 angular points to   590 for atom    4.
 Symmetry reduced   590 angular points to   590 for atom    4.
 Pruned (  99, 590) grid will be used in numerical quadrature.
 IPart= 15 Atom number   4 atomic number  1 has       23466 grid points.
 IPart= 15 Atom   4 batch   10 overlaps   11 atoms,   114 shells and    11 DB shells.   NGrid=      1180
 Symmetry reduced   590 angular points to   590 for atom    4.
 Pruned (  99, 590) grid will be used in numerical quadrature.
 IPart=  9 Atom number   4 atomic number  1 has       23466 grid points.
 IPart=  9 Atom   4 batch   11 overlaps   11 atoms,   114 shells and    11 DB shells.   NGrid=      1180
 Symmetry reduced   590 angular points to   590 for atom    4.
 Pruned (  99, 590) grid will be used in numerical quadrature.
 IPart=  5 Atom number   4 atomic number  1 has       23466 grid points.
 IPart=  5 Atom   4 batch   12 overlaps   11 atoms,   114 shells and    11 DB shells.   NGrid=      1180
 Symmetry reduced   590 angular points to   590 for atom    4.
 Pruned (  99, 590) grid will be used in numerical quadrature.
 IPart=  1 Atom number   4 atomic number  1 has       23466 grid points.
 IPart=  1 Atom   4 batch   13 overlaps   11 atoms,   114 shells and    11 DB shells.   NGrid=       604
 Symmetry reduced   302 angular points to   302 for atom    4.
 Pruned (  99, 590) grid will be used in numerical quadrature.
 IPart=  8 Atom number   4 atomic number  1 has       23466 grid points.
 IPart=  8 Atom   4 batch   14 overlaps   11 atoms,   113 shells and    11 DB shells.   NGrid=       604
 Symmetry reduced   302 angular points to   302 for atom    4.
 IPart=  8 Atom   4 batch   15 overlaps   11 atoms,   110 shells and    11 DB shells.   NGrid=       604
 IPart=  1 Atom   4 batch   16 overlaps   11 atoms,   106 shells and    11 DB shells.   NGrid=       604
 Pruned (  99, 590) grid will be used in numerical quadrature.
 IPart= 14 Atom number   4 atomic number  1 has       23466 grid points.
 IPart= 14 Atom   4 batch   17 overlaps   11 atoms,    97 shells and    11 DB shells.   NGrid=       604
 Symmetry reduced   302 angular points to   302 for atom    4.
 Pruned (  99, 590) grid will be used in numerical quadrature.
 IPart=  0 Atom number   4 atomic number  1 has       23466 grid points.
 IPart=  1 Atom   4 batch   19 overlaps   11 atoms,    50 shells and    10 DB shells.   NGrid=       604
 IPart=  0 Atom   4 batch   18 overlaps   11 atoms,    73 shells and    11 DB shells.   NGrid=       604
 Symmetry reduced   302 angular points to   302 for atom    4.
 IPart=  8 Atom   4 batch   20 overlaps   11 atoms,    33 shells and     7 DB shells.   NGrid=       604
 IPart=  8 Atom   4 batch   21 overlaps   11 atoms,    13 shells and     0 DB shells.   NGrid=       604
 IPart=  1 Atom   4 batch   22 overlaps   11 atoms,     7 shells and     0 DB shells.   NGrid=       604
 Pruned (  99, 590) grid will be used in numerical quadrature.
 Pruned (  99, 590) grid will be used in numerical quadrature.
 IPart=  0 Atom number   5 atomic number  1 has       23466 grid points.
 IPart= 14 Atom number   5 atomic number  1 has       23466 grid points.
 IPart=  0 Atom   5 batch    1 overlaps   11 atoms,   108 shells and    11 DB shells.   NGrid=      2838
 IPart= 14 Atom   5 batch    2 overlaps   11 atoms,   110 shells and    11 DB shells.   NGrid=      1552
 Symmetry reduced    86 angular points to    86 for atom    5.
 Symmetry reduced   194 angular points to   194 for atom    5.
 Pruned (  99, 590) grid will be used in numerical quadrature.
 IPart=  8 Atom number   5 atomic number  1 has       23466 grid points.
 IPart=  8 Atom   5 batch    3 overlaps   11 atoms,   111 shells and    11 DB shells.   NGrid=      2416
 Symmetry reduced   302 angular points to   302 for atom    5.
 Pruned (  99, 590) grid will be used in numerical quadrature.
 IPart=  1 Atom number   5 atomic number  1 has       23466 grid points.
 IPart=  1 Atom   5 batch    4 overlaps   11 atoms,   111 shells and    11 DB shells.   NGrid=      1180
 Symmetry reduced   590 angular points to   590 for atom    5.
 Pruned (  99, 590) grid will be used in numerical quadrature.
 IPart=  5 Atom number   5 atomic number  1 has       23466 grid points.
 IPart=  5 Atom   5 batch    5 overlaps   11 atoms,   112 shells and    11 DB shells.   NGrid=      1180
 Symmetry reduced   590 angular points to   590 for atom    5.
 Pruned (  99, 590) grid will be used in numerical quadrature.
 IPart=  4 Atom number   5 atomic number  1 has       23466 grid points.
 IPart=  4 Atom   5 batch    6 overlaps   11 atoms,   113 shells and    11 DB shells.   NGrid=      1180
 Symmetry reduced   590 angular points to   590 for atom    5.
 Pruned (  99, 590) grid will be used in numerical quadrature.
 IPart=  9 Atom number   5 atomic number  1 has       23466 grid points.
 IPart=  9 Atom   5 batch    7 overlaps   11 atoms,   114 shells and    11 DB shells.   NGrid=      1180
 Symmetry reduced   590 angular points to   590 for atom    5.
 Pruned (  99, 590) grid will be used in numerical quadrature.
 IPart= 13 Atom number   5 atomic number  1 has       23466 grid points.
 IPart= 13 Atom   5 batch    8 overlaps   11 atoms,   114 shells and    11 DB shells.   NGrid=      1180
 Symmetry reduced   590 angular points to   590 for atom    5.
 Pruned (  99, 590) grid will be used in numerical quadrature.
 IPart=  2 Atom number   5 atomic number  1 has       23466 grid points.
 IPart=  2 Atom   5 batch    9 overlaps   11 atoms,   114 shells and    11 DB shells.   NGrid=      1180
 Symmetry reduced   590 angular points to   590 for atom    5.
 Pruned (  99, 590) grid will be used in numerical quadrature.
 IPart=  6 Atom number   5 atomic number  1 has       23466 grid points.
 IPart=  6 Atom   5 batch   10 overlaps   11 atoms,   114 shells and    11 DB shells.   NGrid=      1180
 Symmetry reduced   590 angular points to   590 for atom    5.
 Pruned (  99, 590) grid will be used in numerical quadrature.
 IPart= 11 Atom number   5 atomic number  1 has       23466 grid points.
 IPart= 11 Atom   5 batch   11 overlaps   11 atoms,   114 shells and    11 DB shells.   NGrid=      1180
 Symmetry reduced   590 angular points to   590 for atom    5.
 Pruned (  99, 590) grid will be used in numerical quadrature.
 Pruned (  99, 590) grid will be used in numerical quadrature.
 IPart= 15 Atom number   5 atomic number  1 has       23466 grid points.
 IPart= 12 Atom number   5 atomic number  1 has       23466 grid points.
 IPart= 15 Atom   5 batch   12 overlaps   11 atoms,   114 shells and    11 DB shells.   NGrid=      1180
 IPart= 12 Atom   5 batch   13 overlaps   11 atoms,   114 shells and    11 DB shells.   NGrid=       604
 Symmetry reduced   590 angular points to   590 for atom    5.
 Symmetry reduced   302 angular points to   302 for atom    5.
 Pruned (  99, 590) grid will be used in numerical quadrature.
 IPart=  7 Atom number   5 atomic number  1 has       23466 grid points.
 IPart=  7 Atom   5 batch   14 overlaps   11 atoms,   113 shells and    11 DB shells.   NGrid=       604
 Symmetry reduced   302 angular points to   302 for atom    5.
 IPart= 12 Atom   5 batch   15 overlaps   11 atoms,   110 shells and    11 DB shells.   NGrid=       604
 IPart=  7 Atom   5 batch   16 overlaps   11 atoms,   106 shells and    11 DB shells.   NGrid=       604
 IPart=  7 Atom   5 batch   17 overlaps   11 atoms,    97 shells and    11 DB shells.   NGrid=       604
 IPart= 12 Atom   5 batch   18 overlaps   11 atoms,    73 shells and    11 DB shells.   NGrid=       604
 IPart=  1 Atom   5 batch   19 overlaps   11 atoms,    50 shells and    10 DB shells.   NGrid=       604
 Symmetry reduced   302 angular points to   302 for atom    5.
 Pruned (  99, 590) grid will be used in numerical quadrature.
 IPart= 10 Atom number   5 atomic number  1 has       23466 grid points.
 IPart= 10 Atom   5 batch   20 overlaps   11 atoms,    33 shells and     7 DB shells.   NGrid=       604
 Symmetry reduced   302 angular points to   302 for atom    5.
 IPart= 15 Atom   5 batch   21 overlaps   11 atoms,    13 shells and     0 DB shells.   NGrid=       604
 Symmetry reduced   302 angular points to   302 for atom    5.
 IPart=  5 Atom   5 batch   22 overlaps   11 atoms,     7 shells and     0 DB shells.   NGrid=       604
 Symmetry reduced   302 angular points to   302 for atom    5.
 Pruned (  99, 590) grid will be used in numerical quadrature.
 IPart=  3 Atom number   5 atomic number  1 has       23466 grid points.
 Pruned (  99, 590) grid will be used in numerical quadrature.
 IPart=  3 Atom number   6 atomic number  1 has       23164 grid points.
 IPart=  3 Atom   6 batch    1 overlaps   11 atoms,   111 shells and    11 DB shells.   NGrid=      2838
 Symmetry reduced    86 angular points to    86 for atom    6.
 Pruned (  99, 590) grid will be used in numerical quadrature.
 IPart=  4 Atom number   6 atomic number  1 has       23164 grid points.
 IPart=  4 Atom   6 batch    2 overlaps   11 atoms,   112 shells and    11 DB shells.   NGrid=      1552
 Symmetry reduced   194 angular points to   194 for atom    6.
 Pruned (  99, 590) grid will be used in numerical quadrature.
 IPart= 10 Atom number   6 atomic number  1 has       23164 grid points.
 IPart= 10 Atom   6 batch    3 overlaps   11 atoms,   113 shells and    11 DB shells.   NGrid=      2416
 Pruned (  99, 590) grid will be used in numerical quadrature.
 Symmetry reduced   302 angular points to   302 for atom    6.
 IPart= 11 Atom number   6 atomic number  1 has       23164 grid points.
 IPart= 11 Atom   6 batch    4 overlaps   11 atoms,   114 shells and    11 DB shells.   NGrid=      1180
 Pruned (  99, 590) grid will be used in numerical quadrature.
 Symmetry reduced   590 angular points to   590 for atom    6.
 IPart=  1 Atom number   6 atomic number  1 has       23164 grid points.
 Pruned (  99, 590) grid will be used in numerical quadrature.
[...]
 3438 Fit       0.138311
 3439 Fit       0.130382
 3440 Fit       0.124283
 3441 Fit       0.119641
 3442 Fit       0.116189
 3443 Fit       0.113744
 3444 Fit       0.112190
 3445 Fit       0.111463
 3446 Fit       0.111545
 3447 Fit       0.112974
 3448 Fit       0.114654
 3449 Fit       0.147532
 3450 Fit       0.137532
 3451 Fit       0.129681
 3452 Fit       0.123643
 3453 Fit       0.119110
 3454 Fit       0.115841
 3455 Fit       0.113670
 3456 Fit       0.112492
 3457 Fit       0.112261
 3458 Fit       0.114323
 3459 Fit       0.115977
 3460 Fit       0.118791
 3461 Fit       0.156356
 3462 Fit       0.145969
 3463 Fit       0.136757
 3464 Fit       0.129234
 3465 Fit       0.123399
 3466 Fit       0.119090
 3467 Fit       0.116133
 3468 Fit       0.114395
 3469 Fit       0.113800
 3470 Fit       0.116526
 3471 Fit       0.118335
 3472 Fit       0.121666
 3473 Fit       0.126510
 3474 Fit       0.132752
 3475 Fit       0.139981
 3476 Fit       0.147309
 3477 Fit       0.153576
 3478 Fit       0.157603
 3479 Fit       0.158035
 3480 Fit       0.154065
 3481 Fit       0.146769
 3482 Fit       0.138420
 3483 Fit       0.130790
 3484 Fit       0.124669
 3485 Fit       0.120237
 3486 Fit       0.117451
 3487 Fit       0.116230
 3488 Fit       0.119656
 3489 Fit       0.122013
 3490 Fit       0.126712
 3491 Fit       0.133153
 3492 Fit       0.139924
 3493 Fit       0.144851
 3494 Fit       0.145724
 3495 Fit       0.141710
 3496 Fit       0.134722
 3497 Fit       0.127734
 3498 Fit       0.122561
 3499 Fit       0.119828
 3500 Fit       0.123848
 3501 Fit       0.127664
 3502 Fit       0.134042
 3503 Fit       0.136440
 3504 Fit       0.131684
 3505 Fit       0.125554
 3506 Fit       0.129328
 -----------------------------------------------------------------
 Leave Link  602 at Tue Sep 30 16:59:07 2025, MaxMem=  4294967296 cpu:               2.3 elap:               0.2
 (Enter /software/sse/easybuild/prefix/software/Gaussian/16.C.01-avx2-nsc1/g16/l701.exe)
 ... and contract with generalized density number  0.
 Compute integral first derivatives.
 Leave Link  701 at Tue Sep 30 16:59:08 2025, MaxMem=  4294967296 cpu:               2.4 elap:               0.2
 (Enter /software/sse/easybuild/prefix/software/Gaussian/16.C.01-avx2-nsc1/g16/l702.exe)
 L702 exits ... SP integral derivatives will be done elsewhere.
 Leave Link  702 at Tue Sep 30 16:59:08 2025, MaxMem=  4294967296 cpu:               0.3 elap:               0.0
 (Enter /software/sse/easybuild/prefix/software/Gaussian/16.C.01-avx2-nsc1/g16/l703.exe)
 Integral derivatives from FoFJK, PRISM(SPDF).
 Compute integral first derivatives, UseDBF=F ICtDFT=           0.
 Calling FoFJK, ICntrl=      2127 FMM=F ISym2X=1 I1Cent= 0 IOpClX= 0 NMat=1 NMatS=1 NMatT=0.
 FoFJK:  IHMeth= 1 ICntrl=    2127 DoSepK=F KAlg= 0 I1Cent=           0 FoldK=F
 IRaf=         0 NMat=       1 IRICut=       1 DoRegI=T DoRafI=F ISym2E= 1 IDoP0=0 IntGTp=1.
 FoFCou: FMM=F IPFlag=           0 FMFlag=      100000 FMFlg1=         800
         NFxFlg=           0 DoJE=F BraDBF=F KetDBF=F FulRan=T
         wScrn=  0.000000 ICntrl=      2127 IOpCl=  0 I1Cent=           0 NGrid=           0
         NMat0=    1 NMatS0=      1 NMatT0=    0 NMatD0=    1 NMtDS0=    0 NMtDT0=    0
 Petite list used in FoFCou.
 Leave Link  703 at Tue Sep 30 16:59:15 2025, MaxMem=  4294967296 cpu:             110.7 elap:               7.0
 (Enter /software/sse/easybuild/prefix/software/Gaussian/16.C.01-avx2-nsc1/g16/l716.exe)
 Dipole        =-1.47398486D+00-3.73716799D-01 4.44089210D-16
 ***** Axes restored to original set *****
 -------------------------------------------------------------------
 Center     Atomic                   Forces (Hartrees/Bohr)
 Number     Number              X              Y              Z
 -------------------------------------------------------------------
      1        7          -0.000000066    0.000009429   -0.000000000
      2        6          -0.000001190    0.000001656    0.000000000
      3        1           0.000003274   -0.000003712   -0.000000000
      4        1          -0.000001148   -0.000002434    0.000005289
      5        1          -0.000001148   -0.000002434   -0.000005289
      6        1           0.000000836   -0.000001922   -0.000002589
      7        1           0.000000836   -0.000001922    0.000002589
      8        6          -0.000001114    0.000001594   -0.000000000
      9        1           0.000000179    0.000000471   -0.000000237
     10        1          -0.000000638   -0.000001196   -0.000000000
     11        1           0.000000179    0.000000471    0.000000237
 -------------------------------------------------------------------
 Cartesian Forces:  Max     0.000009429 RMS     0.000002561
 Leave Link  716 at Tue Sep 30 16:59:15 2025, MaxMem=  4294967296 cpu:               0.6 elap:               0.1
 (Enter /software/sse/easybuild/prefix/software/Gaussian/16.C.01-avx2-nsc1/g16/l103.exe)

 GradGradGradGradGradGradGradGradGradGradGradGradGradGradGradGradGradGrad
 Berny optimization.
 FormGI is forming the generalized inverse of G from B-inverse, IUseBI=4.
 Internal  Forces:  Max     0.000005681 RMS     0.000001648
 Search for a local minimum.
 Step number   1 out of a maximum of   56
 All quantities printed in internal units (Hartrees-Bohrs-Radians)
 RMS Force = .16483D-05 SwitMx=.10000D-02 MixMth= 2
 Mixed Optimization -- En-DIIS/RFO-DIIS
 Second derivative matrix not updated -- first step.
 ITU=  0
     Eigenvalues ---    0.00230   0.00577   0.03880   0.04874   0.05349
     Eigenvalues ---    0.05418   0.05534   0.05925   0.07987   0.11847
     Eigenvalues ---    0.16000   0.16000   0.16000   0.16000   0.16000
     Eigenvalues ---    0.16000   0.21942   0.30841   0.30924   0.35597
     Eigenvalues ---    0.35597   0.35900   0.36139   0.36139   0.46402
     Eigenvalues ---    0.46402   0.46449
 RFO step:  Lambda= 0.00000000D+00 EMin= 2.30000000D-03
 Linear search not attempted -- first point.
 Iteration  1 RMS(Cart)=  0.00000563 RMS(Int)=  0.00000000
 Iteration  2 RMS(Cart)=  0.00000000 RMS(Int)=  0.00000000
 ITry= 1 IFail=0 DXMaxC= 1.57D-05 DCOld= 1.00D+10 DXMaxT= 3.00D-01 DXLimC= 3.00D+00 Rises=F
 ClnCor:  largest displacement from symmetrization is 4.70D-12 for atom     5.
 Variable       Old X    -DE/DX   Delta X   Delta X   Delta X     New X
                                 (Linear)    (Quad)   (Total)
    R1        2.86316  -0.00000   0.00000  -0.00000  -0.00000   2.86316
    R2        1.90328  -0.00000   0.00000  -0.00001  -0.00001   1.90327
    R3        1.90380   0.00001   0.00000   0.00001   0.00001   1.90382
    R4        1.90380   0.00001   0.00000   0.00001   0.00001   1.90382
    R5        2.03865  -0.00000   0.00000  -0.00001  -0.00001   2.03864
    R6        2.03865  -0.00000   0.00000  -0.00001  -0.00001   2.03864
    R7        2.86158  -0.00000   0.00000  -0.00001  -0.00001   2.86157
    R8        2.04716  -0.00000   0.00000  -0.00000  -0.00000   2.04716
    R9        2.04239  -0.00000   0.00000  -0.00000  -0.00000   2.04238
   R10        2.04716  -0.00000   0.00000  -0.00000  -0.00000   2.04716
    A1        1.94739   0.00000   0.00000   0.00001   0.00001   1.94740
    A2        1.93918   0.00000   0.00000   0.00000   0.00000   1.93918
    A3        1.93918   0.00000   0.00000   0.00000   0.00000   1.93918
    A4        1.87994  -0.00000   0.00000  -0.00001  -0.00001   1.87992
    A5        1.87994  -0.00000   0.00000  -0.00001  -0.00001   1.87992
    A6        1.87511   0.00000   0.00000   0.00001   0.00001   1.87512
    A7        1.85053   0.00000   0.00000   0.00000   0.00000   1.85053
    A8        1.85053   0.00000   0.00000   0.00000   0.00000   1.85053
    A9        1.92793   0.00000   0.00000   0.00000   0.00000   1.92794
   A10        1.90282   0.00000   0.00000   0.00000   0.00000   1.90282
   A11        1.96268  -0.00000   0.00000  -0.00000  -0.00000   1.96268
   A12        1.96268  -0.00000   0.00000  -0.00000  -0.00000   1.96268
   A13        1.94748   0.00000   0.00000   0.00000   0.00000   1.94749
   A14        1.89641   0.00000   0.00000   0.00000   0.00000   1.89641
   A15        1.94748   0.00000   0.00000   0.00000   0.00000   1.94749
   A16        1.88305  -0.00000   0.00000  -0.00000  -0.00000   1.88305
   A17        1.90413   0.00000   0.00000   0.00000   0.00000   1.90413
   A18        1.88305  -0.00000   0.00000  -0.00000  -0.00000   1.88305
    D1        1.01063   0.00000   0.00000   0.00000   0.00000   1.01063
    D2       -1.01063  -0.00000   0.00000  -0.00000  -0.00000  -1.01063
    D3        3.14159   0.00000   0.00000   0.00000   0.00000   3.14159
    D4       -1.08764   0.00000   0.00000   0.00001   0.00001  -1.08762
    D5       -3.10889   0.00000   0.00000   0.00001   0.00001  -3.10888
    D6        1.04333   0.00000   0.00000   0.00001   0.00001   1.04334
    D7        3.10889  -0.00000   0.00000  -0.00001  -0.00001   3.10888
    D8        1.08764  -0.00000   0.00000  -0.00001  -0.00001   1.08762
    D9       -1.04333  -0.00000   0.00000  -0.00001  -0.00001  -1.04334
   D10       -1.06758  -0.00000   0.00000  -0.00000  -0.00000  -1.06758
   D11        3.14159   0.00000   0.00000   0.00000   0.00000   3.14159
   D12        1.06758   0.00000   0.00000   0.00000   0.00000   1.06758
   D13        0.99599   0.00000   0.00000   0.00000   0.00000   0.99599
   D14       -1.07802   0.00000   0.00000   0.00000   0.00000  -1.07802
   D15        3.13115   0.00000   0.00000   0.00000   0.00000   3.13115
   D16       -3.13115  -0.00000   0.00000  -0.00000  -0.00000  -3.13115
   D17        1.07802  -0.00000   0.00000  -0.00000  -0.00000   1.07802
   D18       -0.99599  -0.00000   0.00000  -0.00000  -0.00000  -0.99599
         Item               Value     Threshold  Converged?
 Maximum Force            0.000006     0.000015     YES
 RMS     Force            0.000002     0.000010     YES
 Maximum Displacement     0.000016     0.000060     YES
 RMS     Displacement     0.000006     0.000040     YES
 Predicted change in Energy=-1.800566D-10
 Optimization completed.
    -- Stationary point found.
                           ----------------------------
                           !   Optimized Parameters   !
                           ! (Angstroms and Degrees)  !
 --------------------------                            --------------------------
 ! Name  Definition              Value          Derivative Info.                !
 --------------------------------------------------------------------------------
 ! R1    R(1,2)                  1.5151         -DE/DX =    0.0                 !
 ! R2    R(1,3)                  1.0072         -DE/DX =    0.0                 !
 ! R3    R(1,4)                  1.0074         -DE/DX =    0.0                 !
 ! R4    R(1,5)                  1.0074         -DE/DX =    0.0                 !
 ! R5    R(2,6)                  1.0788         -DE/DX =    0.0                 !
 ! R6    R(2,7)                  1.0788         -DE/DX =    0.0                 !
 ! R7    R(2,8)                  1.5143         -DE/DX =    0.0                 !
 ! R8    R(8,9)                  1.0833         -DE/DX =    0.0                 !
 ! R9    R(8,10)                 1.0808         -DE/DX =    0.0                 !
 ! R10   R(8,11)                 1.0833         -DE/DX =    0.0                 !
 ! A1    A(2,1,3)              111.5772         -DE/DX =    0.0                 !
 ! A2    A(2,1,4)              111.1068         -DE/DX =    0.0                 !
 ! A3    A(2,1,5)              111.1068         -DE/DX =    0.0                 !
 ! A4    A(3,1,4)              107.7124         -DE/DX =    0.0                 !
 ! A5    A(3,1,5)              107.7124         -DE/DX =    0.0                 !
 ! A6    A(4,1,5)              107.4361         -DE/DX =    0.0                 !
 ! A7    A(1,2,6)              106.0277         -DE/DX =    0.0                 !
 ! A8    A(1,2,7)              106.0277         -DE/DX =    0.0                 !
 ! A9    A(1,2,8)              110.4625         -DE/DX =    0.0                 !
 ! A10   A(6,2,7)              109.0235         -DE/DX =    0.0                 !
 ! A11   A(6,2,8)              112.4533         -DE/DX =    0.0                 !
 ! A12   A(7,2,8)              112.4533         -DE/DX =    0.0                 !
 ! A13   A(2,8,9)              111.5826         -DE/DX =    0.0                 !
 ! A14   A(2,8,10)             108.6564         -DE/DX =    0.0                 !
 ! A15   A(2,8,11)             111.5826         -DE/DX =    0.0                 !
 ! A16   A(9,8,10)             107.8908         -DE/DX =    0.0                 !
 ! A17   A(9,8,11)             109.0984         -DE/DX =    0.0                 !
 ! A18   A(10,8,11)            107.8908         -DE/DX =    0.0                 !
 ! D1    D(3,1,2,6)             57.9046         -DE/DX =    0.0                 !
 ! D2    D(3,1,2,7)            -57.9046         -DE/DX =    0.0                 !
 ! D3    D(3,1,2,8)            180.0            -DE/DX =    0.0                 !
 ! D4    D(4,1,2,6)            -62.3169         -DE/DX =    0.0                 !
 ! D5    D(4,1,2,7)           -178.1262         -DE/DX =    0.0                 !
 ! D6    D(4,1,2,8)             59.7784         -DE/DX =    0.0                 !
 ! D7    D(5,1,2,6)            178.1262         -DE/DX =    0.0                 !
 ! D8    D(5,1,2,7)             62.3169         -DE/DX =    0.0                 !
 ! D9    D(5,1,2,8)            -59.7784         -DE/DX =    0.0                 !
 ! D10   D(1,2,8,9)            -61.1676         -DE/DX =    0.0                 !
 ! D11   D(1,2,8,10)           180.0            -DE/DX =    0.0                 !
 ! D12   D(1,2,8,11)            61.1676         -DE/DX =    0.0                 !
 ! D13   D(6,2,8,9)             57.0663         -DE/DX =    0.0                 !
 ! D14   D(6,2,8,10)           -61.7661         -DE/DX =    0.0                 !
 ! D15   D(6,2,8,11)           179.4015         -DE/DX =    0.0                 !
 ! D16   D(7,2,8,9)           -179.4015         -DE/DX =    0.0                 !
 ! D17   D(7,2,8,10)            61.7661         -DE/DX =    0.0                 !
 ! D18   D(7,2,8,11)           -57.0663         -DE/DX =    0.0                 !
 --------------------------------------------------------------------------------
 Lowest energy point so far.  Saving SCF results.
 Largest change from initial coordinates is atom   10       0.000 Angstoms.
 GradGradGradGradGradGradGradGradGradGradGradGradGradGradGradGradGradGrad

 Leave Link  103 at Tue Sep 30 16:59:15 2025, MaxMem=  4294967296 cpu:               1.9 elap:               0.1
 (Enter /software/sse/easybuild/prefix/software/Gaussian/16.C.01-avx2-nsc1/g16/l202.exe)
                          Input orientation:                          
 ---------------------------------------------------------------------
 Center     Atomic      Atomic             Coordinates (Angstroms)
 Number     Number       Type             X           Y           Z
 ---------------------------------------------------------------------
      1          7           0       -1.171550   -0.351080    0.000000
      2          6           0       -0.000000    0.609680    0.000000
      3          1           0       -2.051860    0.138260    0.000000
      4          1           0       -1.152090   -0.946930    0.812120
      5          1           0       -1.152090   -0.946930   -0.812120
      6          1           0       -0.119030    1.224550    0.878400
      7          1           0       -0.119030    1.224550   -0.878400
      8          6           0        1.308980   -0.151650    0.000000
      9          1           0        1.409200   -0.771930    0.882480
     10          1           0        2.122670    0.559690    0.000000
     11          1           0        1.409200   -0.771930   -0.882480
 ---------------------------------------------------------------------
                    Distance matrix (angstroms):
                    1          2          3          4          5
     1  N    0.000000
     2  C    1.515120   0.000000
     3  H    1.007174   2.105319   0.000000
     4  H    1.007450   2.099973   1.626887   0.000000
     5  H    1.007450   2.099973   1.626887   1.624240   0.000000
     6  H    2.088539   1.078805   2.384836   2.405604   2.939455
     7  H    2.088539   1.078805   2.384836   2.939455   2.405604
     8  C    2.488534   1.514283   3.373321   2.710881   2.710881
     9  H    2.759738   2.161819   3.685940   2.568225   3.076118
    10  H    3.417804   2.123259   4.195748   3.695064   3.695064
    11  H    2.759738   2.161819   3.685940   3.076118   2.568225
                    6          7          8          9         10
     6  H    0.000000
     7  H    1.756800   0.000000
     8  C    2.169038   2.169038   0.000000
     9  H    2.514247   3.069547   1.083311   0.000000
    10  H    2.497768   2.497768   1.080785   1.749578   0.000000
    11  H    3.069547   2.514247   1.083311   1.764960   1.749578
                   11
    11  H    0.000000
 Stoichiometry    C2H8N(1+)
 Framework group  CS[SG(C2H2N),X(H6)]
 Deg. of freedom    16
 Full point group                 CS      NOp   2
 RotChk:  IX=0 Diff= 4.15D-17
 Largest Abelian subgroup         CS      NOp   2
 Largest concise Abelian subgroup CS      NOp   2
                         Standard orientation:                         
 ---------------------------------------------------------------------
 Center     Atomic      Atomic             Coordinates (Angstroms)
 Number     Number       Type             X           Y           Z
 ---------------------------------------------------------------------
      1          7           0       -1.171550   -0.351078    0.000000
      2          6           0       -0.000000    0.609682    0.000000
      3          1           0       -2.051860    0.138262    0.000000
      4          1           0       -1.152090   -0.946928    0.812120
      5          1           0       -1.152090   -0.946928   -0.812120
      6          1           0       -0.119030    1.224552    0.878400
      7          1           0       -0.119030    1.224552   -0.878400
      8          6           0        1.308980   -0.151648    0.000000
      9          1           0        1.409200   -0.771928    0.882480
     10          1           0        2.122670    0.559692    0.000000
     11          1           0        1.409200   -0.771928   -0.882480
 ---------------------------------------------------------------------
 Rotational constants (GHZ):          29.8923434           8.4092946           7.4216156
 Leave Link  202 at Tue Sep 30 16:59:15 2025, MaxMem=  4294967296 cpu:               0.1 elap:               0.0
 (Enter /software/sse/easybuild/prefix/software/Gaussian/16.C.01-avx2-nsc1/g16/l9999.exe)

 Test job not archived.
 1\1\NSC-N1085\FOpt\RHF\Aug-CC-pVTZ\C2H8N1(1+)\X_DAVVA\30-Sep-2025\0\\#
 P HF/aug-cc-pvtz Opt=tight Pop=(MK,Hirshfeld) iop(6/33=2) iop(6/42=6) 
 maxdisk=128GB\\ethylammonium\\1,1\N,-1.17155,-0.35108,0.\C,0.,0.60968,
 0.\H,-2.05186,0.13826,0.\H,-1.15209,-0.94693,0.81212\H,-1.15209,-0.946
 93,-0.81212\H,-0.11903,1.22455,0.8784\H,-0.11903,1.22455,-0.8784\C,1.3
 0898,-0.15165,0.\H,1.4092,-0.77193,0.88248\H,2.12267,0.55969,0.\H,1.40
 92,-0.77193,-0.88248\\Version=ES64L-G16RevC.01\State=1-A'\HF=-134.6756
 406\RMSD=1.867e-09\RMSF=2.561e-06\Dipole=-1.4739849,-0.3737168,0.\Quad
 rupole=3.3871999,-1.3855643,-2.0016356,1.5064483,0.,0.\PG=CS [SG(C2H2N
 1),X(H6)]\\@


 HE THAT WALD REACHE THE SWEITE ROSE
 SULD NOW AND THEN BE SCRATCHED WT THE SCHARPE BREERES.
 -- PROVERBS AND REASONS OF THE YEAR 1585
           AS REPRINTED IN PAISLEY MAGAZINE 1828.
 Job cpu time:       0 days  0 hours  4 minutes 45.3 seconds.
 Elapsed time:       0 days  0 hours  0 minutes 22.7 seconds.
 File lengths (MBytes):  RWF=     43 Int=      0 D2E=      0 Chk=     12 Scr=      1
 Normal termination of Gaussian 16 at Tue Sep 30 16:59:15 2025.
