 Entering Gaussian System, Link 0=/software/sse/easybuild/prefix/software/Gaussian/16.C.01-avx2-nsc1/g16/g16.orig
 Input=ethylammonium.wrap
 Output=ethylammonium.log
 Initial command:
 /software/sse/easybuild/prefix/software/Gaussian/16.C.01-avx2-nsc1/g16/l1.exe "/scratch/local/Gau-3568760.inp" -scrdir="/scratch/local/"
 Entering Link 1 = /software/sse/easybuild/prefix/software/Gaussian/16.C.01-avx2-nsc1/g16/l1.exe PID=   3568761.
  
 Copyright (c) 1988-2019, Gaussian, Inc.  All Rights Reserved.
  
 This is part of the Gaussian(R) 16 program.  It is based on
 the Gaussian(R) 09 system (copyright 2009, Gaussian, Inc.),
 the Gaussian(R) 03 system (copyright 2003, Gaussian, Inc.),
 the Gaussian(R) 98 system (copyright 1998, Gaussian, Inc.),
 the Gaussian(R) 94 system (copyright 1995, Gaussian, Inc.),
 the Gaussian 92(TM) system (copyright 1992, Gaussian, Inc.),
 the Gaussian 90(TM) system (copyright 1990, Gaussian, Inc.),
 the Gaussian 88(TM) system (copyright 1988, Gaussian, Inc.),
 the Gaussian 86(TM) system (copyright 1986, Carnegie Mellon
 University), and the Gaussian 82(TM) system (copyright 1983,
 Carnegie Mellon University). Gaussian is a federally registered
 trademark of Gaussian, Inc.
  
 This software contains proprietary and confidential information,
 including trade secrets, belonging to Gaussian, Inc.
  
 This software is provided under written license and may be
 used, copied, transmitted, or stored only in accord with that
 written license.
  
 The following legend is applicable only to US Government
 contracts under FAR:
  
                    RESTRICTED RIGHTS LEGEND
  
 Use, reproduction and disclosure by the US Government is
 subject to restrictions as set forth in subparagraphs (a)
 and (c) of the Commercial Computer Software - Restricted
 Rights clause in FAR 52.227-19.
  
 Gaussian, Inc.
 340 Quinnipiac St., Bldg. 40, Wallingford CT 06492
  
  
 ---------------------------------------------------------------
 Warning -- This program may not be used in any manner that
 competes with the business of Gaussian, Inc. or will provide
 assistance to any competitor of Gaussian, Inc.  The licensee
 of this program is prohibited from giving any competitor of
 Gaussian, Inc. access to this program.  By using this program,
 the user acknowledges that Gaussian, Inc. is engaged in the
 business of creating and licensing software in the field of
 computational chemistry and represents and warrants to the
 licensee that it is not a competitor of Gaussian, Inc. and that
 it will not use this program in any manner prohibited above.
 ---------------------------------------------------------------
  

 Cite this work as:
 Gaussian 16, Revision C.01,
 M. J. Frisch, G. W. Trucks, H. B. Schlegel, G. E. Scuseria, 
 M. A. Robb, J. R. Cheeseman, G. Scalmani, V. Barone, 
 G. A. Petersson, H. Nakatsuji, X. Li, M. Caricato, A. V. Marenich, 
 J. Bloino, B. G. Janesko, R. Gomperts, B. Mennucci, H. P. Hratchian, 
 J. V. Ortiz, A. F. Izmaylov, J. L. Sonnenberg, D. Williams-Young, 
 F. Ding, F. Lipparini, F. Egidi, J. Goings, B. Peng, A. Petrone, 
 T. Henderson, D. Ranasinghe, V. G. Zakrzewski, J. Gao, N. Rega, 
 G. Zheng, W. Liang, M. Hada, M. Ehara, K. Toyota, R. Fukuda, 
 J. Hasegawa, M. Ishida, T. Nakajima, Y. Honda, O. Kitao, H. Nakai, 
 T. Vreven, K. Throssell, J. A. Montgomery, Jr., J. E. Peralta, 
 F. Ogliaro, M. J. Bearpark, J. J. Heyd, E. N. Brothers, K. N. Kudin, 
 V. N. Staroverov, T. A. Keith, R. Kobayashi, J. Normand, 
 K. Raghavachari, A. P. Rendell, J. C. Burant, S. S. Iyengar, 
 J. Tomasi, M. Cossi, J. M. Millam, M. Klene, C. Adamo, R. Cammi, 
 J. W. Ochterski, R. L. Martin, K. Morokuma, O. Farkas, 
 J. B. Foresman, and D. J. Fox, Gaussian, Inc., Wallingford CT, 2019.
 
 ******************************************
 Gaussian 16:  ES64L-G16RevC.01  3-Jul-2019
                28-Sep-2025 
 ******************************************
 %mem=12000MB
 %nprocshared=8
 Will use up to    8 processors via shared memory.
 %chk=water19.chk
 ----------------------------------------------------------------------
 #P HF/aug-cc-pvtz Opt=(Redundant, calcall, verytight) symm=(loose,foll
 ow) Pop=(MK,Hirshfeld,ReadRadii) iop(6/33=2) iop(6/42=6) Polar Freq ma
 xdisk=128GB
 ----------------------------------------------------------------------
 1/7=1,10=4,18=20,19=15,38=1/1,3;
 2/9=110,12=2,17=4,18=3,40=1/2;
 3/5=16,6=1,7=10,11=9,25=1,30=1,71=2,140=1/1,2,3;
 4//1;
 5/5=2,38=5,98=1/2;
 8/6=4,10=90,11=11/1;
 11/6=1,8=1,9=11,15=111,16=1/1,2,10;
 10/6=1/2;
 6/7=2,8=2,9=2,10=2,15=8,18=1,20=101,28=1,33=2,42=6,79=1/1,2;
 7/10=1,25=1/1,2,3,16;
 1/7=1,10=4,18=20,19=15/3(3);
 2/9=110,15=5/2;
 7/8=1,9=1,25=1,44=-1/16;
 99//99;
 2/9=110,15=5/2;
 3/5=16,6=1,7=10,11=9,25=1,30=1,71=2,140=1/1,2,3;
 4/5=5,16=3,69=1/1;
 5/5=2,38=5,98=1/2;
 8/6=4,10=90,11=11/1;
 11/6=1,8=1,9=11,15=111,16=1/1,2,10;
 10/6=1/2;
 7/10=1,25=1/1,2,3,16;
 1/7=1,10=4,18=20,19=15/3(-8);
 2/9=110,15=5/2;
 6/7=2,8=2,9=2,10=2,15=8,18=1,19=2,20=101,28=1,33=2,42=6,79=1/1,2;
 7/8=1,9=1,25=1,44=-1/16;
 99//99;
 Leave Link    1 at Sun Sep 28 21:01:52 2025, MaxMem=  1572864000 cpu:               0.6 elap:               0.1
 (Enter /software/sse/easybuild/prefix/software/Gaussian/16.C.01-avx2-nsc1/g16/l101.exe)
 -------------
 ethylammonium
 -------------
 Symbolic Z-matrix:
 Charge =  1 Multiplicity = 1
 N                    -1.11816  -0.3568   -0.39858 
 C                     0.42056  -0.36659  -0.24587 
 H                    -1.43295  -1.10386  -1.02196 
 H                    -1.43365   0.53717  -0.78288 
 H                    -1.56857  -0.48548   0.5108 
 H                     0.81953  -0.2601   -1.25218 
 H                     0.67517  -1.35423   0.13221 
 C                     0.87543   0.74773   0.68224 
 H                     0.61483   1.73559   0.29921 
 H                     1.96121   0.7127    0.76814 
 H                     0.46945   0.63746   1.68897 
 
 ITRead=  0  0  0  0  0  0  0  0  0  0  0
 MicOpt= -1 -1 -1 -1 -1 -1 -1 -1 -1 -1 -1
 NAtoms=     11 NQM=       11 NQMF=       0 NMMI=      0 NMMIF=      0
                NMic=       0 NMicF=      0.
                    Isotopes and Nuclear Properties:
 (Nuclear quadrupole moments (NQMom) in fm**2, nuclear magnetic moments (NMagM)
  in nuclear magnetons)

  Atom         1           2           3           4           5           6           7           8           9          10
 IAtWgt=          14          12           1           1           1           1           1          12           1           1
 AtmWgt=  14.0030740  12.0000000   1.0078250   1.0078250   1.0078250   1.0078250   1.0078250  12.0000000   1.0078250   1.0078250
 NucSpn=           2           0           1           1           1           1           1           0           1           1
 AtZEff=  -0.0000000  -0.0000000  -0.0000000  -0.0000000  -0.0000000  -0.0000000  -0.0000000  -0.0000000  -0.0000000  -0.0000000
 NQMom=    2.0440000   0.0000000   0.0000000   0.0000000   0.0000000   0.0000000   0.0000000   0.0000000   0.0000000   0.0000000
 NMagM=    0.4037610   0.0000000   2.7928460   2.7928460   2.7928460   2.7928460   2.7928460   0.0000000   2.7928460   2.7928460
 AtZNuc=   7.0000000   6.0000000   1.0000000   1.0000000   1.0000000   1.0000000   1.0000000   6.0000000   1.0000000   1.0000000

  Atom        11
 IAtWgt=           1
 AtmWgt=   1.0078250
 NucSpn=           1
 AtZEff=  -0.0000000
 NQMom=    0.0000000
 NMagM=    2.7928460
 AtZNuc=   1.0000000
 Leave Link  101 at Sun Sep 28 21:01:52 2025, MaxMem=  1572864000 cpu:               1.9 elap:               0.3
 (Enter /software/sse/easybuild/prefix/software/Gaussian/16.C.01-avx2-nsc1/g16/l103.exe)

 GradGradGradGradGradGradGradGradGradGradGradGradGradGradGradGradGradGrad
 Berny optimization.
 Initialization pass.
                           ----------------------------
                           !    Initial Parameters    !
                           ! (Angstroms and Degrees)  !
 --------------------------                            --------------------------
 ! Name  Definition              Value          Derivative Info.                !
 --------------------------------------------------------------------------------
 ! R1    R(1,2)                  1.5463         calculate D2E/DX2 analytically  !
 ! R2    R(1,3)                  1.0226         calculate D2E/DX2 analytically  !
 ! R3    R(1,4)                  1.0229         calculate D2E/DX2 analytically  !
 ! R4    R(1,5)                  1.0229         calculate D2E/DX2 analytically  !
 ! R5    R(2,6)                  1.0877         calculate D2E/DX2 analytically  !
 ! R6    R(2,7)                  1.0878         calculate D2E/DX2 analytically  !
 ! R7    R(2,8)                  1.5199         calculate D2E/DX2 analytically  !
 ! R8    R(8,9)                  1.0911         calculate D2E/DX2 analytically  !
 ! R9    R(8,10)                 1.0897         calculate D2E/DX2 analytically  !
 ! R10   R(8,11)                 1.0911         calculate D2E/DX2 analytically  !
 ! A1    A(2,1,3)              111.2159         calculate D2E/DX2 analytically  !
 ! A2    A(2,1,4)              110.459          calculate D2E/DX2 analytically  !
 ! A3    A(2,1,5)              110.4602         calculate D2E/DX2 analytically  !
 ! A4    A(3,1,4)              108.3293         calculate D2E/DX2 analytically  !
 ! A5    A(3,1,5)              108.3291         calculate D2E/DX2 analytically  !
 ! A6    A(4,1,5)              107.9458         calculate D2E/DX2 analytically  !
 ! A7    A(1,2,6)              105.8429         calculate D2E/DX2 analytically  !
 ! A8    A(1,2,7)              105.8426         calculate D2E/DX2 analytically  !
 ! A9    A(1,2,8)              110.6998         calculate D2E/DX2 analytically  !
 ! A10   A(6,2,7)              108.9414         calculate D2E/DX2 analytically  !
 ! A11   A(6,2,8)              112.5438         calculate D2E/DX2 analytically  !
 ! A12   A(7,2,8)              112.5438         calculate D2E/DX2 analytically  !
 ! A13   A(2,8,9)              112.2069         calculate D2E/DX2 analytically  !
 ! A14   A(2,8,10)             108.8298         calculate D2E/DX2 analytically  !
 ! A15   A(2,8,11)             112.2087         calculate D2E/DX2 analytically  !
 ! A16   A(9,8,10)             107.1429         calculate D2E/DX2 analytically  !
 ! A17   A(9,8,11)             109.0587         calculate D2E/DX2 analytically  !
 ! A18   A(10,8,11)            107.1425         calculate D2E/DX2 analytically  !
 ! D1    D(3,1,2,6)             57.768          calculate D2E/DX2 analytically  !
 ! D2    D(3,1,2,7)            -57.7802         calculate D2E/DX2 analytically  !
 ! D3    D(3,1,2,8)            179.994          calculate D2E/DX2 analytically  !
 ! D4    D(4,1,2,6)            -62.5552         calculate D2E/DX2 analytically  !
 ! D5    D(4,1,2,7)           -178.1033         calculate D2E/DX2 analytically  !
 ! D6    D(4,1,2,8)             59.6708         calculate D2E/DX2 analytically  !
 ! D7    D(5,1,2,6)            178.0916         calculate D2E/DX2 analytically  !
 ! D8    D(5,1,2,7)             62.5434         calculate D2E/DX2 analytically  !
 ! D9    D(5,1,2,8)            -59.6824         calculate D2E/DX2 analytically  !
 ! D10   D(1,2,8,9)            -61.6188         calculate D2E/DX2 analytically  !
 ! D11   D(1,2,8,10)           179.9838         calculate D2E/DX2 analytically  !
 ! D12   D(1,2,8,11)            61.5857         calculate D2E/DX2 analytically  !
 ! D13   D(6,2,8,9)             56.6            calculate D2E/DX2 analytically  !
 ! D14   D(6,2,8,10)           -61.7974         calculate D2E/DX2 analytically  !
 ! D15   D(6,2,8,11)           179.8045         calculate D2E/DX2 analytically  !
 ! D16   D(7,2,8,9)           -179.8373         calculate D2E/DX2 analytically  !
 ! D17   D(7,2,8,10)            61.7654         calculate D2E/DX2 analytically  !
 ! D18   D(7,2,8,11)           -56.6327         calculate D2E/DX2 analytically  !
 --------------------------------------------------------------------------------
 Trust Radius=3.00D-01 FncErr=1.00D-07 GrdErr=1.00D-07 EigMax=2.50D+02 EigMin=1.00D-04
 Number of steps in this run=     56 maximum allowed number of steps=    100.
 GradGradGradGradGradGradGradGradGradGradGradGradGradGradGradGradGradGrad

 Leave Link  103 at Sun Sep 28 21:01:52 2025, MaxMem=  1572864000 cpu:               0.1 elap:               0.0
 (Enter /software/sse/easybuild/prefix/software/Gaussian/16.C.01-avx2-nsc1/g16/l202.exe)
                          Input orientation:                          
 ---------------------------------------------------------------------
 Center     Atomic      Atomic             Coordinates (Angstroms)
 Number     Number       Type             X           Y           Z
 ---------------------------------------------------------------------
      1          7           0       -1.118164   -0.356798   -0.398582
      2          6           0        0.420565   -0.366590   -0.245872
      3          1           0       -1.432953   -1.103859   -1.021956
      4          1           0       -1.433655    0.537174   -0.782884
      5          1           0       -1.568574   -0.485478    0.510804
      6          1           0        0.819528   -0.260102   -1.252177
      7          1           0        0.675172   -1.354230    0.132213
      8          6           0        0.875427    0.747734    0.682236
      9          1           0        0.614827    1.735595    0.299208
     10          1           0        1.961215    0.712700    0.768141
     11          1           0        0.469448    0.637464    1.688966
 ---------------------------------------------------------------------
                    Distance matrix (angstroms):
                    1          2          3          4          5
     1  N    0.000000
     2  C    1.546319   0.000000
     3  H    1.022638   2.140421   0.000000
     4  H    1.022941   2.131502   1.658357   0.000000
     5  H    1.022942   2.131517   1.658355   1.654585   0.000000
     6  H    2.119581   1.087732   2.416319   2.435717   2.976899
     7  H    2.119591   1.087752   2.416399   2.976905   2.435663
     8  C    2.522412   1.519869   3.414863   2.742767   2.742871
     9  H    2.805045   2.180375   3.741841   2.608335   3.121727
    10  H    3.462317   2.136982   4.245552   3.736526   3.736477
    11  H    2.804804   2.180393   3.741716   3.121203   2.608180
                    6          7          8          9         10
     6  H    0.000000
     7  H    1.770449   0.000000
     8  C    2.181928   2.181944   0.000000
     9  H    2.536041   3.094923   1.091097   0.000000
    10  H    2.516242   2.516050   1.089743   1.754700   0.000000
    11  H    3.094916   2.536266   1.091093   1.777204   1.754693
                   11
    11  H    0.000000
 Stoichiometry    C2H8N(1+)
 Framework group  C1[X(C2H8N)]
 Deg. of freedom    27
 Full point group                 C1      NOp   1
 Largest Abelian subgroup         C1      NOp   1
 Largest concise Abelian subgroup C1      NOp   1
                         Standard orientation:                         
 ---------------------------------------------------------------------
 Center     Atomic      Atomic             Coordinates (Angstroms)
 Number     Number       Type             X           Y           Z
 ---------------------------------------------------------------------
      1          7           0       -1.220856   -0.247138   -0.000000
      2          6           0        0.064732    0.612144    0.000002
      3          1           0       -2.058291    0.339795    0.000102
      4          1           0       -1.249184   -0.848198    0.827244
      5          1           0       -1.249295   -0.848062   -0.827341
      6          1           0        0.001529    1.241077    0.885219
      7          1           0        0.001524    1.241090   -0.885230
      8          6           0        1.301440   -0.271347   -0.000000
      9          1           0        1.357876   -0.901774    0.888746
     10          1           0        2.187195    0.363459   -0.000291
     11          1           0        1.357606   -0.902197   -0.888459
 ---------------------------------------------------------------------
 Rotational constants (GHZ):          29.3368785           8.1845112           7.2327491
 Leave Link  202 at Sun Sep 28 21:01:52 2025, MaxMem=  1572864000 cpu:               0.0 elap:               0.0
 (Enter /software/sse/easybuild/prefix/software/Gaussian/16.C.01-avx2-nsc1/g16/l301.exe)
 Standard basis: Aug-CC-pVTZ (5D, 7F)
 Ernie: Thresh=  0.10000D-02 Tol=  0.10000D-05 Strict=F.
 Ernie:  9 primitive shells out of 178 were deleted.
 There are   365 symmetry adapted cartesian basis functions of A   symmetry.
 There are   322 symmetry adapted basis functions of A   symmetry.
   322 basis functions,   432 primitive gaussians,   365 cartesian basis functions
    13 alpha electrons       13 beta electrons
       nuclear repulsion energy        89.3782303731 Hartrees.
 IExCor=    0 DFT=F Ex=HF Corr=None ExCW=0 ScaHFX=  1.000000
 ScaDFX=  1.000000  1.000000  1.000000  1.000000 ScalE2=  1.000000  1.000000
 IRadAn=      5 IRanWt=     -1 IRanGd=            0 ICorTp=0 IEmpDi=  4
 NAtoms=   11 NActive=   11 NUniq=   11 SFac= 1.00D+00 NAtFMM=   60 NAOKFM=F Big=F
 Integral buffers will be    131072 words long.
 Raffenetti 1 integral format.
 Two-electron integral symmetry is turned on.
 Leave Link  301 at Sun Sep 28 21:01:53 2025, MaxMem=  1572864000 cpu:               0.4 elap:               0.1
 (Enter /software/sse/easybuild/prefix/software/Gaussian/16.C.01-avx2-nsc1/g16/l302.exe)
 NPDir=0 NMtPBC=     1 NCelOv=     1 NCel=       1 NClECP=     1 NCelD=      1
         NCelK=      1 NCelE2=     1 NClLst=     1 CellRange=     0.0.
 One-electron integrals computed using PRISM.
 One-electron integral symmetry used in STVInt
 NBasis=   322 RedAO= T EigKep=  1.39D-05  NBF=   322
 NBsUse=   322 1.00D-06 EigRej= -1.00D+00 NBFU=   322
 Leave Link  302 at Sun Sep 28 21:01:53 2025, MaxMem=  1572864000 cpu:               1.2 elap:               0.2
 (Enter /software/sse/easybuild/prefix/software/Gaussian/16.C.01-avx2-nsc1/g16/l303.exe)
 DipDrv:  MaxL=1.
 Leave Link  303 at Sun Sep 28 21:01:54 2025, MaxMem=  1572864000 cpu:               0.3 elap:               0.1
 (Enter /software/sse/easybuild/prefix/software/Gaussian/16.C.01-avx2-nsc1/g16/l401.exe)
 ExpMin= 2.53D-02 ExpMax= 1.14D+04 ExpMxC= 3.89D+02 IAcc=3 IRadAn=         5 AccDes= 0.00D+00
 Harris functional with IExCor=  205 and IRadAn=       5 diagonalized for initial guess.
 HarFok:  IExCor=  205 AccDes= 0.00D+00 IRadAn=         5 IDoV= 1 UseB2=F ITyADJ=14
 ICtDFT=  3500011 ScaDFX=  1.000000  1.000000  1.000000  1.000000
 FoFCou: FMM=F IPFlag=           0 FMFlag=      100000 FMFlg1=           0
         NFxFlg=           0 DoJE=T BraDBF=F KetDBF=T FulRan=T
         wScrn=  0.000000 ICntrl=       500 IOpCl=  0 I1Cent=   200000004 NGrid=           0
         NMat0=    1 NMatS0=      1 NMatT0=    0 NMatD0=    1 NMtDS0=    0 NMtDT0=    0
 Petite list used in FoFCou.
 Harris En= -135.029050357953    
 JPrj=0 DoOrth=F DoCkMO=F.
 Leave Link  401 at Sun Sep 28 21:01:54 2025, MaxMem=  1572864000 cpu:               4.2 elap:               0.6
 (Enter /software/sse/easybuild/prefix/software/Gaussian/16.C.01-avx2-nsc1/g16/l502.exe)
 Keep R1 ints in memory in canonical form, NReq=1376697617.
 FoFCou: FMM=F IPFlag=           0 FMFlag=           0 FMFlg1=           0
         NFxFlg=           0 DoJE=F BraDBF=F KetDBF=F FulRan=T
         wScrn=  0.000000 ICntrl=       600 IOpCl=  0 I1Cent=           0 NGrid=           0
         NMat0=    1 NMatS0=  52003 NMatT0=    0 NMatD0=    1 NMtDS0=    0 NMtDT0=    0
 Symmetry not used in FoFCou.
 Two-electron integral symmetry not used.
 Closed shell SCF:
 Using DIIS extrapolation, IDIIS=  1040.
 NGot=  1572864000 LenX=   220409238 LenY=   220275572
 Requested convergence on RMS density matrix=1.00D-08 within 128 cycles.
 Requested convergence on MAX density matrix=1.00D-06.
 Requested convergence on             energy=1.00D-06.
 No special actions if energy rises.

 Cycle   1  Pass 1  IDiag  1:
 E= -134.504349983379    
 DIIS: error= 2.58D-02 at cycle   1 NSaved=   1.
 NSaved= 1 IEnMin= 1 EnMin= -134.504349983379     IErMin= 1 ErrMin= 2.58D-02
 ErrMax= 2.58D-02  0.00D+00 EMaxC= 1.00D-01 BMatC= 3.21D-01 BMatP= 3.21D-01
 IDIUse=3 WtCom= 7.42D-01 WtEn= 2.58D-01
 Coeff-Com:  0.100D+01
 Coeff-En:   0.100D+01
 Coeff:      0.100D+01
 Gap=     0.548 Goal=   None    Shift=    0.000
 GapD=    0.548 DampG=2.000 DampE=0.500 DampFc=1.0000 IDamp=-1.
 RMSDP=1.37D-03 MaxDP=5.65D-02              OVMax= 1.18D-01

 Cycle   2  Pass 1  IDiag  1:
 E= -134.650955366832     Delta-E=       -0.146605383453 Rises=F Damp=F
 DIIS: error= 1.09D-02 at cycle   2 NSaved=   2.
 NSaved= 2 IEnMin= 2 EnMin= -134.650955366832     IErMin= 2 ErrMin= 1.09D-02
 ErrMax= 1.09D-02  0.00D+00 EMaxC= 1.00D-01 BMatC= 2.57D-02 BMatP= 3.21D-01
 IDIUse=3 WtCom= 8.91D-01 WtEn= 1.09D-01
 Coeff-Com:  0.135D+00 0.865D+00
 Coeff-En:   0.000D+00 0.100D+01
 Coeff:      0.120D+00 0.880D+00
 Gap=     0.645 Goal=   None    Shift=    0.000
 RMSDP=5.10D-04 MaxDP=2.49D-02 DE=-1.47D-01 OVMax= 4.72D-02

 Cycle   3  Pass 1  IDiag  1:
 E= -134.672253870374     Delta-E=       -0.021298503542 Rises=F Damp=F
 DIIS: error= 3.29D-03 at cycle   3 NSaved=   3.
 NSaved= 3 IEnMin= 3 EnMin= -134.672253870374     IErMin= 3 ErrMin= 3.29D-03
 ErrMax= 3.29D-03  0.00D+00 EMaxC= 1.00D-01 BMatC= 1.90D-03 BMatP= 2.57D-02
 IDIUse=3 WtCom= 9.67D-01 WtEn= 3.29D-02
 Coeff-Com: -0.255D-01 0.167D+00 0.859D+00
 Coeff-En:   0.000D+00 0.000D+00 0.100D+01
 Coeff:     -0.247D-01 0.161D+00 0.863D+00
 Gap=     0.579 Goal=   None    Shift=    0.000
 RMSDP=1.07D-04 MaxDP=4.17D-03 DE=-2.13D-02 OVMax= 9.55D-03

 Cycle   4  Pass 1  IDiag  1:
 E= -134.674140074663     Delta-E=       -0.001886204289 Rises=F Damp=F
 DIIS: error= 4.62D-04 at cycle   4 NSaved=   4.
 NSaved= 4 IEnMin= 4 EnMin= -134.674140074663     IErMin= 4 ErrMin= 4.62D-04
 ErrMax= 4.62D-04  0.00D+00 EMaxC= 1.00D-01 BMatC= 3.29D-05 BMatP= 1.90D-03
 IDIUse=3 WtCom= 9.95D-01 WtEn= 4.62D-03
 Coeff-Com:  0.103D-02-0.345D-01-0.989D-01 0.113D+01
 Coeff-En:   0.000D+00 0.000D+00 0.000D+00 0.100D+01
 Coeff:      0.102D-02-0.344D-01-0.985D-01 0.113D+01
 Gap=     0.580 Goal=   None    Shift=    0.000
 RMSDP=3.08D-05 MaxDP=1.93D-03 DE=-1.89D-03 OVMax= 3.16D-03

 Cycle   5  Pass 1  IDiag  1:
 E= -134.674210578121     Delta-E=       -0.000070503458 Rises=F Damp=F
 DIIS: error= 1.10D-04 at cycle   5 NSaved=   5.
 NSaved= 5 IEnMin= 5 EnMin= -134.674210578121     IErMin= 5 ErrMin= 1.10D-04
 ErrMax= 1.10D-04  0.00D+00 EMaxC= 1.00D-01 BMatC= 3.50D-06 BMatP= 3.29D-05
 IDIUse=3 WtCom= 9.99D-01 WtEn= 1.10D-03
 Coeff-Com:  0.208D-02-0.148D-01-0.718D-01-0.877D-02 0.109D+01
 Coeff-En:   0.000D+00 0.000D+00 0.000D+00 0.000D+00 0.100D+01
 Coeff:      0.208D-02-0.148D-01-0.718D-01-0.876D-02 0.109D+01
 Gap=     0.581 Goal=   None    Shift=    0.000
 RMSDP=9.68D-06 MaxDP=4.85D-04 DE=-7.05D-05 OVMax= 1.16D-03

 Cycle   6  Pass 1  IDiag  1:
 E= -134.674218063798     Delta-E=       -0.000007485677 Rises=F Damp=F
 DIIS: error= 3.16D-05 at cycle   6 NSaved=   6.
 NSaved= 6 IEnMin= 6 EnMin= -134.674218063798     IErMin= 6 ErrMin= 3.16D-05
 ErrMax= 3.16D-05  0.00D+00 EMaxC= 1.00D-01 BMatC= 2.29D-07 BMatP= 3.50D-06
 IDIUse=1 WtCom= 1.00D+00 WtEn= 0.00D+00
 Coeff-Com:  0.247D-03-0.329D-03-0.394D-02-0.629D-01 0.126D+00 0.941D+00
 Coeff:      0.247D-03-0.329D-03-0.394D-02-0.629D-01 0.126D+00 0.941D+00
 Gap=     0.581 Goal=   None    Shift=    0.000
 RMSDP=1.94D-06 MaxDP=7.53D-05 DE=-7.49D-06 OVMax= 2.73D-04

 Cycle   7  Pass 1  IDiag  1:
 E= -134.674218452133     Delta-E=       -0.000000388335 Rises=F Damp=F
 DIIS: error= 8.99D-06 at cycle   7 NSaved=   7.
 NSaved= 7 IEnMin= 7 EnMin= -134.674218452133     IErMin= 7 ErrMin= 8.99D-06
 ErrMax= 8.99D-06  0.00D+00 EMaxC= 1.00D-01 BMatC= 2.25D-08 BMatP= 2.29D-07
 IDIUse=1 WtCom= 1.00D+00 WtEn= 0.00D+00
 Coeff-Com: -0.198D-03 0.155D-02 0.731D-02-0.125D-02-0.107D+00 0.314D-01
 Coeff-Com:  0.107D+01
 Coeff:     -0.198D-03 0.155D-02 0.731D-02-0.125D-02-0.107D+00 0.314D-01
 Coeff:      0.107D+01
 Gap=     0.581 Goal=   None    Shift=    0.000
 RMSDP=6.38D-07 MaxDP=2.11D-05 DE=-3.88D-07 OVMax= 7.08D-05

 Cycle   8  Pass 1  IDiag  1:
 E= -134.674218493354     Delta-E=       -0.000000041220 Rises=F Damp=F
 DIIS: error= 2.11D-06 at cycle   8 NSaved=   8.
 NSaved= 8 IEnMin= 8 EnMin= -134.674218493354     IErMin= 8 ErrMin= 2.11D-06
 ErrMax= 2.11D-06  0.00D+00 EMaxC= 1.00D-01 BMatC= 1.23D-09 BMatP= 2.25D-08
 IDIUse=1 WtCom= 1.00D+00 WtEn= 0.00D+00
 Coeff-Com: -0.284D-04 0.142D-03 0.620D-03 0.421D-02-0.128D-01-0.601D-01
 Coeff-Com:  0.268D-01 0.104D+01
 Coeff:     -0.284D-04 0.142D-03 0.620D-03 0.421D-02-0.128D-01-0.601D-01
 Coeff:      0.268D-01 0.104D+01
 Gap=     0.581 Goal=   None    Shift=    0.000
 RMSDP=1.49D-07 MaxDP=4.89D-06 DE=-4.12D-08 OVMax= 2.27D-05

 Cycle   9  Pass 1  IDiag  1:
 E= -134.674218495888     Delta-E=       -0.000000002535 Rises=F Damp=F
 DIIS: error= 5.79D-07 at cycle   9 NSaved=   9.
 NSaved= 9 IEnMin= 9 EnMin= -134.674218495888     IErMin= 9 ErrMin= 5.79D-07
 ErrMax= 5.79D-07  0.00D+00 EMaxC= 1.00D-01 BMatC= 1.05D-10 BMatP= 1.23D-09
 IDIUse=1 WtCom= 1.00D+00 WtEn= 0.00D+00
 Coeff-Com:  0.615D-05-0.616D-04-0.347D-03 0.416D-03 0.529D-02-0.936D-02
 Coeff-Com: -0.730D-01 0.142D+00 0.935D+00
 Coeff:      0.615D-05-0.616D-04-0.347D-03 0.416D-03 0.529D-02-0.936D-02
 Coeff:     -0.730D-01 0.142D+00 0.935D+00
 Gap=     0.581 Goal=   None    Shift=    0.000
 RMSDP=4.35D-08 MaxDP=1.24D-06 DE=-2.53D-09 OVMax= 4.27D-06

 Cycle  10  Pass 1  IDiag  1:
 E= -134.674218496046     Delta-E=       -0.000000000158 Rises=F Damp=F
 DIIS: error= 1.55D-07 at cycle  10 NSaved=  10.
 NSaved=10 IEnMin=10 EnMin= -134.674218496046     IErMin=10 ErrMin= 1.55D-07
 ErrMax= 1.55D-07  0.00D+00 EMaxC= 1.00D-01 BMatC= 3.72D-12 BMatP= 1.05D-10
 IDIUse=1 WtCom= 1.00D+00 WtEn= 0.00D+00
 Coeff-Com:  0.150D-05-0.616D-05-0.326D-04-0.314D-03 0.868D-03 0.405D-02
 Coeff-Com: -0.297D-02-0.653D-01 0.203D-01 0.104D+01
 Coeff:      0.150D-05-0.616D-05-0.326D-04-0.314D-03 0.868D-03 0.405D-02
 Coeff:     -0.297D-02-0.653D-01 0.203D-01 0.104D+01
 Gap=     0.581 Goal=   None    Shift=    0.000
 RMSDP=1.16D-08 MaxDP=4.03D-07 DE=-1.58D-10 OVMax= 1.10D-06

 Cycle  11  Pass 1  IDiag  1:
 E= -134.674218496054     Delta-E=       -0.000000000008 Rises=F Damp=F
 DIIS: error= 2.91D-08 at cycle  11 NSaved=  11.
 NSaved=11 IEnMin=11 EnMin= -134.674218496054     IErMin=11 ErrMin= 2.91D-08
 ErrMax= 2.91D-08  0.00D+00 EMaxC= 1.00D-01 BMatC= 9.29D-14 BMatP= 3.72D-12
 IDIUse=1 WtCom= 1.00D+00 WtEn= 0.00D+00
 Coeff-Com: -0.359D-06 0.281D-05 0.152D-04 0.289D-04-0.286D-03-0.221D-03
 Coeff-Com:  0.283D-02 0.302D-02-0.326D-01-0.127D+00 0.115D+01
 Coeff:     -0.359D-06 0.281D-05 0.152D-04 0.289D-04-0.286D-03-0.221D-03
 Coeff:      0.283D-02 0.302D-02-0.326D-01-0.127D+00 0.115D+01
 Gap=     0.581 Goal=   None    Shift=    0.000
 RMSDP=2.02D-09 MaxDP=7.77D-08 DE=-8.13D-12 OVMax= 2.22D-07

 SCF Done:  E(RHF) =  -134.674218496     A.U. after   11 cycles
            NFock= 11  Conv=0.20D-08     -V/T= 2.0019
 KE= 1.344128332912D+02 PE=-4.858795574429D+02 EE= 1.274142752825D+02
 Leave Link  502 at Sun Sep 28 21:02:25 2025, MaxMem=  1572864000 cpu:              94.2 elap:              30.1
 (Enter /software/sse/easybuild/prefix/software/Gaussian/16.C.01-avx2-nsc1/g16/l801.exe)
 Range of M.O.s used for correlation:     1   322
 NBasis=   322 NAE=    13 NBE=    13 NFC=     0 NFV=     0
 NROrb=    322 NOA=    13 NOB=    13 NVA=   309 NVB=   309

 **** Warning!!: The largest alpha MO coefficient is  0.56151377D+02

 Leave Link  801 at Sun Sep 28 21:02:25 2025, MaxMem=  1572864000 cpu:               0.2 elap:               0.0
 (Enter /software/sse/easybuild/prefix/software/Gaussian/16.C.01-avx2-nsc1/g16/l1101.exe)
 Using compressed storage, NAtomX=    11.
 Will process     12 centers per pass.
 Leave Link 1101 at Sun Sep 28 21:02:25 2025, MaxMem=  1572864000 cpu:               1.7 elap:               0.2
 (Enter /software/sse/easybuild/prefix/software/Gaussian/16.C.01-avx2-nsc1/g16/l1102.exe)
 Symmetrizing basis deriv contribution to polar:
 IMax=3 JMax=2 DiffMx= 0.00D+00
 Leave Link 1102 at Sun Sep 28 21:02:25 2025, MaxMem=  1572864000 cpu:               0.3 elap:               0.1
 (Enter /software/sse/easybuild/prefix/software/Gaussian/16.C.01-avx2-nsc1/g16/l1110.exe)
 Forming Gx(P) for the SCF density, NAtomX=    11.
 Integral derivatives from FoFJK, PRISM(SPDF).
 Do as many integral derivatives as possible in FoFJK.
 G2DrvN: MDV=    1572862731.
 G2DrvN: will do    12 centers at a time, making    1 passes.
 Calling FoFCou, ICntrl=  3107 FMM=F I1Cent=   0 AccDes= 0.00D+00.
 FoFJK:  IHMeth= 1 ICntrl=    3107 DoSepK=F KAlg= 0 I1Cent=           0 FoldK=F
 IRaf=         0 NMat=       1 IRICut=       1 DoRegI=T DoRafI=F ISym2E= 0 IDoP0=0 IntGTp=1.
 FoFCou: FMM=F IPFlag=           0 FMFlag=      100000 FMFlg1=           0
         NFxFlg=           0 DoJE=F BraDBF=F KetDBF=F FulRan=T
         wScrn=  0.000000 ICntrl=      3107 IOpCl=  0 I1Cent=           0 NGrid=           0
         NMat0=    1 NMatS0=      1 NMatT0=    0 NMatD0=    1 NMtDS0=    0 NMtDT0=    0
 Symmetry not used in FoFCou.
 End of G2Drv F.D. properties file   721 does not exist.
 End of G2Drv F.D. properties file   722 does not exist.
 End of G2Drv F.D. properties file   788 does not exist.
 Leave Link 1110 at Sun Sep 28 21:03:05 2025, MaxMem=  1572864000 cpu:             320.3 elap:              40.4
 (Enter /software/sse/easybuild/prefix/software/Gaussian/16.C.01-avx2-nsc1/g16/l1002.exe)
 Minotr:  Closed shell wavefunction.
          IDoAtm=11111111111
          Direct CPHF calculation.
          Differentiating once with respect to electric field.
                with respect to dipole field.
          Differentiating once with respect to nuclear coordinates.
          Requested convergence is 1.0D-08 RMS, and 1.0D-07 maximum.
          Secondary convergence is 1.0D-12 RMS, and 1.0D-12 maximum.
          NewPWx=T KeepS1=F KeepF1=F KeepIn=T MapXYZ=F SortEE=F KeepMc=T.
 Keep R1 ints in memory in canonical form, NReq=1376699711.
 FoFCou: FMM=F IPFlag=           0 FMFlag=           0 FMFlg1=           0
         NFxFlg=           0 DoJE=F BraDBF=F KetDBF=F FulRan=T
         wScrn=  0.000000 ICntrl=       600 IOpCl=  0 I1Cent=           0 NGrid=           0
         NMat0=    1 NMatS0=  52003 NMatT0=    0 NMatD0=    1 NMtDS0=    0 NMtDT0=    0
 Symmetry not used in FoFCou.
 Two-electron integral symmetry not used.
          MDV=    1572864000 using IRadAn=       1.
          Solving linear equations simultaneously, MaxMat=       0.
          There are    36 degrees of freedom in the 1st order CPHF.  IDoFFX=6 NUNeed=     3.
     33 vectors produced by pass  0 Test12= 1.12D-14 2.78D-09 XBig12= 7.42D+00 8.79D-01.
 AX will form    33 AO Fock derivatives at one time.
     33 vectors produced by pass  1 Test12= 1.12D-14 2.78D-09 XBig12= 1.46D-01 6.68D-02.
     33 vectors produced by pass  2 Test12= 1.12D-14 2.78D-09 XBig12= 1.37D-03 5.46D-03.
     33 vectors produced by pass  3 Test12= 1.12D-14 2.78D-09 XBig12= 1.22D-05 5.02D-04.
     33 vectors produced by pass  4 Test12= 1.12D-14 2.78D-09 XBig12= 7.87D-08 4.68D-05.
     33 vectors produced by pass  5 Test12= 1.12D-14 2.78D-09 XBig12= 4.16D-10 2.49D-06.
     22 vectors produced by pass  6 Test12= 1.12D-14 2.78D-09 XBig12= 2.08D-12 1.73D-07.
      3 vectors produced by pass  7 Test12= 1.12D-14 2.78D-09 XBig12= 1.02D-14 1.17D-08.
 InvSVY:  IOpt=1 It=  1 EMax= 1.33D-15
 Solved reduced A of dimension   223 with    36 vectors.
 FullF1:  Do perturbations      1 to       3.
 Isotropic polarizability for W=    0.000000       31.02 Bohr**3.
 End of Minotr F.D. properties file   721 does not exist.
 End of Minotr F.D. properties file   722 does not exist.
 End of Minotr F.D. properties file   788 does not exist.
 Leave Link 1002 at Sun Sep 28 21:03:42 2025, MaxMem=  1572864000 cpu:             293.4 elap:              36.9
 (Enter /software/sse/easybuild/prefix/software/Gaussian/16.C.01-avx2-nsc1/g16/l601.exe)
 Copying SCF densities to generalized density rwf, IOpCl= 0 IROHF=0.
 SCF density gives NOpUse=  1 NOpAll=  1.

 **********************************************************************

            Population analysis using the SCF Density.

 **********************************************************************

 Orbital symmetries:
 BldTbl:  Degeneracy threshold= 1.00D-02
       Occupied  (A) (A) (A) (A) (A) (A) (A) (A) (A) (A) (A) (A)
                 (A)
       Virtual   (A) (A) (A) (A) (A) (A) (A) (A) (A) (A) (A) (A)
                 (A) (A) (A) (A) (A) (A) (A) (A) (A) (A) (A) (A)
                 (A) (A) (A) (A) (A) (A) (A) (A) (A) (A) (A) (A)
                 (A) (A) (A) (A) (A) (A) (A) (A) (A) (A) (A) (A)
                 (A) (A) (A) (A) (A) (A) (A) (A) (A) (A) (A) (A)
                 (A) (A) (A) (A) (A) (A) (A) (A) (A) (A) (A) (A)
                 (A) (A) (A) (A) (A) (A) (A) (A) (A) (A) (A) (A)
                 (A) (A) (A) (A) (A) (A) (A) (A) (A) (A) (A) (A)
                 (A) (A) (A) (A) (A) (A) (A) (A) (A) (A) (A) (A)
                 (A) (A) (A) (A) (A) (A) (A) (A) (A) (A) (A) (A)
                 (A) (A) (A) (A) (A) (A) (A) (A) (A) (A) (A) (A)
                 (A) (A) (A) (A) (A) (A) (A) (A) (A) (A) (A) (A)
                 (A) (A) (A) (A) (A) (A) (A) (A) (A) (A) (A) (A)
                 (A) (A) (A) (A) (A) (A) (A) (A) (A) (A) (A) (A)
                 (A) (A) (A) (A) (A) (A) (A) (A) (A) (A) (A) (A)
                 (A) (A) (A) (A) (A) (A) (A) (A) (A) (A) (A) (A)
                 (A) (A) (A) (A) (A) (A) (A) (A) (A) (A) (A) (A)
                 (A) (A) (A) (A) (A) (A) (A) (A) (A) (A) (A) (A)
                 (A) (A) (A) (A) (A) (A) (A) (A) (A) (A) (A) (A)
                 (A) (A) (A) (A) (A) (A) (A) (A) (A) (A) (A) (A)
                 (A) (A) (A) (A) (A) (A) (A) (A) (A) (A) (A) (A)
                 (A) (A) (A) (A) (A) (A) (A) (A) (A) (A) (A) (A)
                 (A) (A) (A) (A) (A) (A) (A) (A) (A) (A) (A) (A)
                 (A) (A) (A) (A) (A) (A) (A) (A) (A) (A) (A) (A)
                 (A) (A) (A) (A) (A) (A) (A) (A) (A) (A) (A) (A)
                 (A) (A) (A) (A) (A) (A) (A) (A) (A)
 The electronic state is 1-A.
 Alpha  occ. eigenvalues --  -15.89585 -11.48933 -11.40466  -1.50747  -1.22398
 Alpha  occ. eigenvalues --   -1.06096  -0.97248  -0.96202  -0.84836  -0.80737
 Alpha  occ. eigenvalues --   -0.73188  -0.71543  -0.69932
 Alpha virt. eigenvalues --   -0.11859  -0.08279  -0.08271  -0.07568  -0.04834
 Alpha virt. eigenvalues --   -0.04637  -0.04209  -0.03936  -0.03427  -0.02362
 Alpha virt. eigenvalues --    0.00171   0.00493   0.00814   0.01063   0.02279
 Alpha virt. eigenvalues --    0.02320   0.03524   0.03742   0.04298   0.04832
 Alpha virt. eigenvalues --    0.06658   0.07853   0.07890   0.09153   0.09541
 Alpha virt. eigenvalues --    0.10963   0.13227   0.14069   0.15429   0.18073
 Alpha virt. eigenvalues --    0.18554   0.19474   0.19476   0.20312   0.20512
 Alpha virt. eigenvalues --    0.21012   0.21621   0.22065   0.22916   0.23055
 Alpha virt. eigenvalues --    0.23651   0.25238   0.25417   0.25578   0.25596
 Alpha virt. eigenvalues --    0.27401   0.27866   0.28720   0.29271   0.29446
 Alpha virt. eigenvalues --    0.30212   0.30920   0.32818   0.33546   0.35799
 Alpha virt. eigenvalues --    0.36147   0.37008   0.38088   0.38448   0.40294
 Alpha virt. eigenvalues --    0.41091   0.41437   0.42025   0.42749   0.43075
 Alpha virt. eigenvalues --    0.46974   0.48266   0.53201   0.54241   0.58367
 Alpha virt. eigenvalues --    0.59646   0.61066   0.63593   0.63899   0.64435
 Alpha virt. eigenvalues --    0.65227   0.65945   0.68032   0.69761   0.70488
 Alpha virt. eigenvalues --    0.70720   0.72415   0.72999   0.73396   0.74925
 Alpha virt. eigenvalues --    0.75490   0.76612   0.77978   0.78532   0.78908
 Alpha virt. eigenvalues --    0.79275   0.82097   0.82666   0.84167   0.84932
 Alpha virt. eigenvalues --    0.85978   0.87475   0.88216   0.88536   0.90079
 Alpha virt. eigenvalues --    0.92724   0.93255   0.95328   0.96257   0.96372
 Alpha virt. eigenvalues --    0.98672   1.00433   1.02988   1.03606   1.04113
 Alpha virt. eigenvalues --    1.05736   1.05932   1.06661   1.06682   1.08717
 Alpha virt. eigenvalues --    1.10544   1.12268   1.12347   1.14499   1.14750
 Alpha virt. eigenvalues --    1.18143   1.18188   1.22136   1.23665   1.25781
 Alpha virt. eigenvalues --    1.27716   1.28094   1.31180   1.31674   1.32412
 Alpha virt. eigenvalues --    1.36130   1.37935   1.39560   1.40596   1.42346
 Alpha virt. eigenvalues --    1.44753   1.44849   1.48852   1.50223   1.50601
 Alpha virt. eigenvalues --    1.52124   1.53009   1.54163   1.54289   1.55688
 Alpha virt. eigenvalues --    1.58192   1.60396   1.61341   1.64377   1.65245
 Alpha virt. eigenvalues --    1.67281   1.69048   1.73091   1.74620   1.74709
 Alpha virt. eigenvalues --    1.76679   1.76957   1.78053   1.79867   1.84150
 Alpha virt. eigenvalues --    1.84376   1.84390   1.87972   1.91271   1.94092
 Alpha virt. eigenvalues --    1.96730   2.00080   2.04286   2.05825   2.06007
 Alpha virt. eigenvalues --    2.07281   2.08130   2.11291   2.17419   2.17811
 Alpha virt. eigenvalues --    2.20626   2.21894   2.23565   2.24344   2.27271
 Alpha virt. eigenvalues --    2.33753   2.34286   2.37248   2.46336   2.46645
 Alpha virt. eigenvalues --    2.47648   2.49885   2.66247   2.80164   2.99611
 Alpha virt. eigenvalues --    3.11003   3.18888   3.21719   3.22620   3.26515
 Alpha virt. eigenvalues --    3.35471   3.39791   3.41933   3.42701   3.45392
 Alpha virt. eigenvalues --    3.45439   3.49157   3.52529   3.53861   3.55930
 Alpha virt. eigenvalues --    3.59065   3.60976   3.61917   3.63090   3.65536
 Alpha virt. eigenvalues --    3.73058   3.73839   3.74748   3.76923   3.78843
 Alpha virt. eigenvalues --    3.79437   3.82666   3.85556   3.88917   3.90826
 Alpha virt. eigenvalues --    3.91165   3.93636   3.93954   3.97724   3.99313
 Alpha virt. eigenvalues --    4.03762   4.04298   4.06750   4.07690   4.11053
 Alpha virt. eigenvalues --    4.12272   4.19248   4.23905   4.24379   4.28803
 Alpha virt. eigenvalues --    4.30116   4.30940   4.34293   4.37322   4.38146
 Alpha virt. eigenvalues --    4.39812   4.43329   4.46572   4.47484   4.49940
 Alpha virt. eigenvalues --    4.50821   4.56419   4.59004   4.60988   4.62629
 Alpha virt. eigenvalues --    4.63385   4.68069   4.68286   4.69773   4.71955
 Alpha virt. eigenvalues --    4.76616   4.77186   4.83527   4.84233   4.84626
 Alpha virt. eigenvalues --    4.88127   4.91998   4.92508   4.97520   4.98724
 Alpha virt. eigenvalues --    5.02578   5.02729   5.05156   5.07618   5.12244
 Alpha virt. eigenvalues --    5.20355   5.20361   5.27762   5.28982   5.34204
 Alpha virt. eigenvalues --    5.36339   5.38991   5.43301   5.52600   5.56422
 Alpha virt. eigenvalues --    5.58595   5.59221   5.61176   5.69473   5.73801
 Alpha virt. eigenvalues --    5.79420   5.81256   5.87526   5.89458   5.93422
 Alpha virt. eigenvalues --    6.00120   6.04536   6.11101   6.12718   6.16260
 Alpha virt. eigenvalues --    6.21420   6.33302   6.53421   6.53583   6.62454
 Alpha virt. eigenvalues --    6.63943   6.71981   6.86241   6.88297   7.55308
 Alpha virt. eigenvalues --    7.55702  17.26838  17.78554  18.87829
          Condensed to atoms (all electrons):
               1          2          3          4          5          6
     1  N    5.508782   0.176433   0.446096   0.396271   0.396276   0.008944
     2  C    0.176433   5.259847  -0.030429  -0.001020  -0.001028   0.374180
     3  H    0.446096  -0.030429   0.503033  -0.029685  -0.029694   0.001254
     4  H    0.396271  -0.001020  -0.029685   0.500586  -0.023764   0.007960
     5  H    0.396276  -0.001028  -0.029694  -0.023764   0.500599  -0.005897
     6  H    0.008944   0.374180   0.001254   0.007960  -0.005897   0.247176
     7  H    0.008932   0.374207   0.001245  -0.005896   0.007963   0.010222
     8  C   -0.022261   0.162913  -0.000337   0.000539   0.000539  -0.003109
     9  H   -0.003494   0.000059  -0.000196  -0.003762   0.002404   0.000260
    10  H   -0.000912   0.007423   0.000036  -0.000335  -0.000336   0.002188
    11  H   -0.003496   0.000053  -0.000195   0.002404  -0.003763  -0.000074
               7          8          9         10         11
     1  N    0.008932  -0.022261  -0.003494  -0.000912  -0.003496
     2  C    0.374207   0.162913   0.000059   0.007423   0.000053
     3  H    0.001245  -0.000337  -0.000196   0.000036  -0.000195
     4  H   -0.005896   0.000539  -0.003762  -0.000335   0.002404
     5  H    0.007963   0.000539   0.002404  -0.000336  -0.003763
     6  H    0.010222  -0.003109   0.000260   0.002188  -0.000074
     7  H    0.247197  -0.003117  -0.000073   0.002186   0.000259
     8  C   -0.003117   5.597037   0.400726   0.371093   0.400729
     9  H   -0.000073   0.400726   0.266648   0.016504   0.011168
    10  H    0.002186   0.371093   0.016504   0.232241   0.016509
    11  H    0.000259   0.400729   0.011168   0.016509   0.266649
 Mulliken charges:
               1
     1  N    0.088430
     2  C   -0.322637
     3  H    0.138873
     4  H    0.156701
     5  H    0.156702
     6  H    0.356894
     7  H    0.356874
     8  C   -0.904753
     9  H    0.309756
    10  H    0.353402
    11  H    0.309756
 Sum of Mulliken charges =   1.00000
 Mulliken charges with hydrogens summed into heavy atoms:
               1
     1  N    0.540707
     2  C    0.391132
     8  C    0.068161
 APT charges:
               1
     1  N   -0.352772
     2  C    0.438584
     3  H    0.262461
     4  H    0.257085
     5  H    0.257087
     6  H    0.013759
     7  H    0.013755
     8  C    0.053006
     9  H    0.006470
    10  H    0.044099
    11  H    0.006467
 Sum of APT charges =   1.00000
 APT charges with hydrogens summed into heavy atoms:
               1
     1  N    0.423861
     2  C    0.466098
     8  C    0.110042
 DipInt: DoE/N= T F RetVal/Mat= T F Init=T NMatP=  1 IDeriv=0 Min/MaxMlt=  0  4
 Entering OneElI...
 OneElI was handed  1572522473 working-precision words.
 Multipole integrals L=0 to 4 MinM= 0 MaxM= 0.
 Requested accuracy = 0.1000D-12
 ShPair: Thresh= 1.00D-13 NBox=     0 BxSize= 0.00D+00 RnKept= 8.02D+00
         NSMCal=                 6555 NSMKep=                6548
 PrmmSu-InSpLW:  IPartL=    0 NPrtUS=    1 NPrtUL=    1 DoSpLW=F IThBeg=    0 IThEnd=    0 NThAct=    1.
 PrSmSu:  IncTry=   512 NBBP=           6548 NTPThr=   100 NPartT=    1 Incr=          65 LDynOK=F GPUOK=F.
 PrsmSu:  NPrtUS=   1 ThrOK=F IAlg=2 LenDen=           0 ISkipM=0 DoSpLW=F IThBeg=    0 IThEnd=    0.
 Prism:   IPart=     0 DynPar=F LinDyn=F Incr=          65.
 PRISM was handed  1572110362 working-precision words and  6548 shell-pairs
 IPart=  0 NShTot=        6548 NBatch=          75 AvBLen=        87.3
 PrsmSu-ThDecC:  IPartSL=    0    0 NPrtUSL=    1    1 IThBeg=    0 IThEnd=    0 CPU=   -1 GPU=   -1 NThAct=    1.
 PrSmSu:  NxtVal=             66.
 Electronic moments (au):
        -26.00000000         -1.48990957         -0.22553325         -0.00000111
       -136.62292422        -45.77121532        -28.32282100          1.01106391
         -0.00004068          0.00002368        -46.40199138        -17.62532373
         -0.00278438        -10.30292275         53.95279142          0.00079156
         -9.07949396          1.45865093          0.00238350          0.00197040
      -1424.49616031       -245.20470256       -124.35177649         13.58447097
          0.01106282         15.79712069         -0.00460469         -0.01342518
          0.00316029       -184.56047312       -144.91826977        -86.38867555
          0.00690148          0.00554700         11.97830794
 Electronic spatial extent (au):  <R**2>=            210.7170
 DipInt: DoE/N= F T RetVal/Mat= T F Init=T NMatP=  1 IDeriv=0 Min/MaxMlt=  0  4
 Nuclear    moments (au):
         27.00000000         -0.00000000         -0.00000000          0.00000000
        130.16371135         33.96647697         16.12442056          0.00000000
         -0.00000000          0.00000000         22.53674590         16.01664843
          0.00308059          4.49804037        -54.76346570         -0.00112169
          2.94620714         -4.32096597         -0.00262483         -0.00265570
       1087.33846912        102.47356893         43.51089578        -10.30663618
         -0.01619643         -4.79833620          0.00566263          0.01818042
         -0.00340508         98.96959598         64.36744386         59.72589024
         -0.00740519         -0.00759040         -6.13085003
 Total      moments (au):
          1.00000000         -1.48990957         -0.22553325         -0.00000111
         -6.45921287        -11.80473836        -12.19840044          1.01106391
         -0.00004068          0.00002368        -23.86524548         -1.60867530
          0.00029621         -5.80488238         -0.81067428         -0.00033013
         -6.13328682         -2.86231504         -0.00024134         -0.00068529
       -337.15769120       -142.73113363        -80.84088071          3.27783479
         -0.00513361         10.99878449          0.00105795          0.00475524
         -0.00024479        -85.59087714        -80.55082591        -26.66278531
         -0.00050371         -0.00204339          5.84745790
 Charge=              1.0000 electrons
 Dipole moment (field-independent basis, Debye):
    X=             -3.7870    Y=             -0.5732    Z=             -0.0000  Tot=              3.8301
 Quadrupole moment (field-independent basis, Debye-Ang):
   XX=             -8.6879   YY=            -15.8778   ZZ=            -16.4073
   XY=              1.3599   XZ=             -0.0001   YZ=              0.0000
 Traceless Quadrupole moment (field-independent basis, Debye-Ang):
   XX=              4.9698   YY=             -2.2201   ZZ=             -2.7496
   XY=              1.3599   XZ=             -0.0001   YZ=              0.0000
 Octapole moment (field-independent basis, Debye-Ang**2):
  XXX=            -16.9864  YYY=             -1.1450  ZZZ=              0.0002  XYY=             -4.1317
  XXY=             -0.5770  XXZ=             -0.0002  XZZ=             -4.3654  YZZ=             -2.0373
  YYZ=             -0.0002  XYZ=             -0.0005
 Hexadecapole moment (field-independent basis, Debye-Ang**3):
 XXXX=           -126.9898 YYYY=            -53.7594 ZZZZ=            -30.4486 XXXY=              1.2346
 XXXZ=             -0.0019 YYYX=              4.1427 YYYZ=              0.0004 ZZZX=              0.0018
 ZZZY=             -0.0001 XXYY=            -32.2376 XXZZ=            -30.3393 YYZZ=            -10.0425
 XXYZ=             -0.0002 YYXZ=             -0.0008 ZZXY=              2.2024
 N-N= 8.937823037307D+01 E-N=-4.858795579788D+02  KE= 1.344128332912D+02
 SetAtRh:  ITypeU=  23 NETotI=      -1 ICharg=  0 NETot=      27.
 StAtR1:  I=    1 I1=    1 IA=  7 C=   7.0 OKShel=TTT
                                                  SSP
                                                  223
 StAtR1:  I=    2 I1=    2 IA=  6 C=   6.0 OKShel=TTT
                                                  SSP
                                                  222
 StAtR1:  I=    3 I1=    3 IA=  1 C=   1.0 OKShel=T
                                                  S
                                                  1
 StAtR1:  I=    4 I1=    4 IA=  1 C=   1.0 OKShel=T
                                                  S
                                                  1
 StAtR1:  I=    5 I1=    5 IA=  1 C=   1.0 OKShel=T
                                                  S
                                                  1
 StAtR1:  I=    6 I1=    6 IA=  1 C=   1.0 OKShel=T
                                                  S
                                                  1
 StAtR1:  I=    7 I1=    7 IA=  1 C=   1.0 OKShel=T
                                                  S
                                                  1
 StAtR1:  I=    8 I1=    8 IA=  6 C=   6.0 OKShel=TTT
                                                  SSP
                                                  222
 StAtR1:  I=    9 I1=    9 IA=  1 C=   1.0 OKShel=T
                                                  S
                                                  1
 StAtR1:  I=   10 I1=   10 IA=  1 C=   1.0 OKShel=T
                                                  S
                                                  1
 StAtR1:  I=   11 I1=   11 IA=  1 C=   1.0 OKShel=T
                                                  S
                                                  1
          I=    1 IA=  7 I1=    1 NAtG=22 NE=   7.000 C=   7.000 Err= 6.08D-13
          I=    2 IA=  6 I1=    2 NAtG=23 NE=   6.000 C=   6.000 Err= 1.75D-11
          I=    3 IA=  1 I1=    3 NAtG=20 NE=   1.000 C=   1.000 Err= 2.80D-12
          I=    4 IA=  1 I1=    4 NAtG=20 NE=   1.000 C=   1.000 Err= 2.80D-12
          I=    5 IA=  1 I1=    5 NAtG=20 NE=   1.000 C=   1.000 Err= 2.80D-12
          I=    6 IA=  1 I1=    6 NAtG=20 NE=   1.000 C=   1.000 Err= 2.80D-12
          I=    7 IA=  1 I1=    7 NAtG=20 NE=   1.000 C=   1.000 Err= 2.80D-12
          I=    8 IA=  6 I1=    8 NAtG=23 NE=   6.000 C=   6.000 Err= 1.75D-11
          I=    9 IA=  1 I1=    9 NAtG=20 NE=   1.000 C=   1.000 Err= 2.80D-12
          I=   10 IA=  1 I1=   10 NAtG=20 NE=   1.000 C=   1.000 Err= 2.80D-12
          I=   11 IA=  1 I1=   11 NAtG=20 NE=   1.000 C=   1.000 Err= 2.80D-12
 Pruned (  99, 590) grid will be used in numerical quadrature.
 IPart=  0 IRanGd=          0 ScrnBf=T ScrnGd=T RCrit=4.00D+00 DoMicB=T.
 CutRad = 1000.00    CtRdIn =    0.00    XCrit =  15.00   ICut = 0
 Pruned (  99, 590) grid will be used in numerical quadrature.
 Pruned (  99, 590) grid will be used in numerical quadrature.
 IPart=  5 IRanGd=          0 ScrnBf=T ScrnGd=T RCrit=4.00D+00 DoMicB=T.
 Pruned (  99, 590) grid will be used in numerical quadrature.
 IPart=  0 Atom number   1 atomic number  7 has       23416 grid points.
 Pruned (  99, 590) grid will be used in numerical quadrature.
 IPart=  4 IRanGd=          0 ScrnBf=T ScrnGd=T RCrit=4.00D+00 DoMicB=T.
 CutRad = 1000.00    CtRdIn =    0.00    XCrit =  15.00   ICut = 0
 IPart=  6 IRanGd=          0 ScrnBf=T ScrnGd=T RCrit=4.00D+00 DoMicB=T.
 IPart=  0 Atom   1 batch    1 overlaps   11 atoms,   111 shells and    11 DB shells.   NGrid=      2408
 Pruned (  99, 590) grid will be used in numerical quadrature.
 Symmetry reduced    86 angular points to    86 for atom    1.
 CutRad = 1000.00    CtRdIn =    0.00    XCrit =  15.00   ICut = 0
 Pruned (  99, 590) grid will be used in numerical quadrature.
 Pruned (  99, 590) grid will be used in numerical quadrature.
 CutRad = 1000.00    CtRdIn =    0.00    XCrit =  15.00   ICut = 0
 IPart=  2 IRanGd=          0 ScrnBf=T ScrnGd=T RCrit=4.00D+00 DoMicB=T.
 CutRad = 1000.00    CtRdIn =    0.00    XCrit =  15.00   ICut = 0
 IPart=  3 IRanGd=          0 ScrnBf=T ScrnGd=T RCrit=4.00D+00 DoMicB=T.
 CutRad = 1000.00    CtRdIn =    0.00    XCrit =  15.00   ICut = 0
 Pruned (  99, 590) grid will be used in numerical quadrature.
 IPart=  1 IRanGd=          0 ScrnBf=T ScrnGd=T RCrit=4.00D+00 DoMicB=T.
 CutRad = 1000.00    CtRdIn =    0.00    XCrit =  15.00   ICut = 0
 IPart=  7 IRanGd=          0 ScrnBf=T ScrnGd=T RCrit=4.00D+00 DoMicB=T.
 CutRad = 1000.00    CtRdIn =    0.00    XCrit =  15.00   ICut = 0
 Pruned (  99, 590) grid will be used in numerical quadrature.
 IPart=  5 Atom number   1 atomic number  7 has       23416 grid points.
 IPart=  5 Atom   1 batch    2 overlaps   11 atoms,   111 shells and    11 DB shells.   NGrid=      2522
 Symmetry reduced   194 angular points to   194 for atom    1.
 Pruned (  99, 590) grid will be used in numerical quadrature.
 IPart=  4 Atom number   1 atomic number  7 has       23416 grid points.
 IPart=  4 Atom   1 batch    3 overlaps   11 atoms,   112 shells and    11 DB shells.   NGrid=      2114
 Symmetry reduced   302 angular points to   302 for atom    1.
 Pruned (  99, 590) grid will be used in numerical quadrature.
 Pruned (  99, 590) grid will be used in numerical quadrature.
 IPart=  2 Atom number   1 atomic number  7 has       23416 grid points.
 IPart=  6 Atom number   1 atomic number  7 has       23416 grid points.
 IPart=  2 Atom   1 batch    4 overlaps   11 atoms,   112 shells and    11 DB shells.   NGrid=      1180
 IPart=  6 Atom   1 batch    5 overlaps   11 atoms,   113 shells and    11 DB shells.   NGrid=      1180
 Pruned (  99, 590) grid will be used in numerical quadrature.
 Symmetry reduced   590 angular points to   590 for atom    1.
 IPart=  1 Atom number   1 atomic number  7 has       23416 grid points.
 Pruned (  99, 590) grid will be used in numerical quadrature.
 Pruned (  99, 590) grid will be used in numerical quadrature.
 IPart=  3 Atom number   1 atomic number  7 has       23416 grid points.
 IPart=  1 Atom   1 batch    7 overlaps   11 atoms,   114 shells and    11 DB shells.   NGrid=      1180
 Symmetry reduced   590 angular points to   590 for atom    1.
 Symmetry reduced   590 angular points to   590 for atom    1.
 IPart=  3 Atom   1 batch    6 overlaps   11 atoms,   114 shells and    11 DB shells.   NGrid=      1180
 IPart=  7 Atom number   1 atomic number  7 has       23416 grid points.
 Symmetry reduced   590 angular points to   590 for atom    1.
 IPart=  7 Atom   1 batch    8 overlaps   11 atoms,   114 shells and    11 DB shells.   NGrid=      1180
 Symmetry reduced   590 angular points to   590 for atom    1.
 IPart=  2 Atom   1 batch    9 overlaps   11 atoms,   114 shells and    11 DB shells.   NGrid=      1180
 IPart=  3 Atom   1 batch   10 overlaps   11 atoms,   114 shells and    11 DB shells.   NGrid=      1180
 IPart=  6 Atom   1 batch   11 overlaps   11 atoms,   114 shells and    11 DB shells.   NGrid=      1180
 IPart=  7 Atom   1 batch   12 overlaps   11 atoms,   113 shells and    11 DB shells.   NGrid=       590
 IPart=  1 Atom   1 batch   13 overlaps   11 atoms,   113 shells and    11 DB shells.   NGrid=       604
 Symmetry reduced   302 angular points to   302 for atom    1.
 IPart=  7 Atom   1 batch   14 overlaps   11 atoms,   113 shells and    11 DB shells.   NGrid=       604
 Symmetry reduced   302 angular points to   302 for atom    1.
 IPart=  1 Atom   1 batch   15 overlaps   11 atoms,   111 shells and    11 DB shells.   NGrid=       604
 IPart=  0 Atom   1 batch   16 overlaps   11 atoms,   108 shells and    11 DB shells.   NGrid=       604
 Symmetry reduced   302 angular points to   302 for atom    1.
 IPart=  4 Atom   1 batch   17 overlaps   11 atoms,   102 shells and    11 DB shells.   NGrid=       604
 IPart=  6 Atom   1 batch   18 overlaps   11 atoms,    88 shells and    11 DB shells.   NGrid=       604
 Symmetry reduced   302 angular points to   302 for atom    1.
 IPart=  3 Atom   1 batch   19 overlaps   11 atoms,    66 shells and    11 DB shells.   NGrid=       604
 Symmetry reduced   302 angular points to   302 for atom    1.
 IPart=  2 Atom   1 batch   20 overlaps   11 atoms,    44 shells and    10 DB shells.   NGrid=       604
 Symmetry reduced   302 angular points to   302 for atom    1.
 IPart=  5 Atom   1 batch   21 overlaps   11 atoms,    28 shells and     6 DB shells.   NGrid=       604
 Symmetry reduced   302 angular points to   302 for atom    1.
 IPart=  1 Atom   1 batch   22 overlaps   11 atoms,    12 shells and     0 DB shells.   NGrid=       604
 IPart=  4 Atom   1 batch   23 overlaps   11 atoms,     5 shells and     0 DB shells.   NGrid=       302
 Pruned (  99, 590) grid will be used in numerical quadrature.
 IPart=  4 Atom number   2 atomic number  6 has       23114 grid points.
 IPart=  4 Atom   2 batch    1 overlaps   11 atoms,   114 shells and    11 DB shells.   NGrid=      2408
 Symmetry reduced    86 angular points to    86 for atom    2.
 Pruned (  99, 590) grid will be used in numerical quadrature.
 IPart=  2 Atom number   2 atomic number  6 has       23114 grid points.
 IPart=  2 Atom   2 batch    2 overlaps   11 atoms,   114 shells and    11 DB shells.   NGrid=      2522
 Symmetry reduced   194 angular points to   194 for atom    2.
 Pruned (  99, 590) grid will be used in numerical quadrature.
 IPart=  5 Atom number   2 atomic number  6 has       23114 grid points.
 IPart=  5 Atom   2 batch    3 overlaps   11 atoms,   114 shells and    11 DB shells.   NGrid=      2114
 Pruned (  99, 590) grid will be used in numerical quadrature.
 Symmetry reduced   302 angular points to   302 for atom    2.
 IPart=  1 Atom number   2 atomic number  6 has       23114 grid points.
 IPart=  1 Atom   2 batch    4 overlaps   11 atoms,   114 shells and    11 DB shells.   NGrid=      1180
 Symmetry reduced   590 angular points to   590 for atom    2.
 Pruned (  99, 590) grid will be used in numerical quadrature.
 IPart=  0 Atom number   2 atomic number  6 has       23114 grid points.
 IPart=  0 Atom   2 batch    5 overlaps   11 atoms,   114 shells and    11 DB shells.   NGrid=      1180
 Symmetry reduced   590 angular points to   590 for atom    2.
 Pruned (  99, 590) grid will be used in numerical quadrature.
 IPart=  7 Atom number   2 atomic number  6 has       23114 grid points.
 Pruned (  99, 590) grid will be used in numerical quadrature.
 IPart=  7 Atom   2 batch    6 overlaps   11 atoms,   114 shells and    11 DB shells.   NGrid=      1180
 IPart=  6 Atom number   2 atomic number  6 has       23114 grid points.
 Symmetry reduced   590 angular points to   590 for atom    2.
 IPart=  6 Atom   2 batch    8 overlaps   11 atoms,   114 shells and    11 DB shells.   NGrid=      1180
 Pruned (  99, 590) grid will be used in numerical quadrature.
 Symmetry reduced   590 angular points to   590 for atom    2.
 IPart=  3 Atom number   2 atomic number  6 has       23114 grid points.
 IPart=  3 Atom   2 batch    7 overlaps   11 atoms,   114 shells and    11 DB shells.   NGrid=      1180
 Symmetry reduced   590 angular points to   590 for atom    2.
 IPart=  1 Atom   2 batch    9 overlaps   11 atoms,   114 shells and    11 DB shells.   NGrid=      1180
 IPart=  0 Atom   2 batch   10 overlaps   11 atoms,   114 shells and    11 DB shells.   NGrid=      1180
 IPart=  6 Atom   2 batch   11 overlaps   11 atoms,   113 shells and    11 DB shells.   NGrid=      1180
 IPart=  3 Atom   2 batch   12 overlaps   11 atoms,   113 shells and    11 DB shells.   NGrid=       590
 IPart=  7 Atom   2 batch   13 overlaps   11 atoms,   113 shells and    11 DB shells.   NGrid=       604
 Symmetry reduced   302 angular points to   302 for atom    2.
 IPart=  3 Atom   2 batch   14 overlaps   11 atoms,   113 shells and    11 DB shells.   NGrid=       604
 Symmetry reduced   302 angular points to   302 for atom    2.
 IPart=  7 Atom   2 batch   15 overlaps   11 atoms,   108 shells and    11 DB shells.   NGrid=       604
 IPart=  5 Atom   2 batch   16 overlaps   11 atoms,   102 shells and    11 DB shells.   NGrid=       604
 IPart=  7 Atom   2 batch   17 overlaps   11 atoms,    84 shells and    11 DB shells.   NGrid=       604
 IPart=  6 Atom   2 batch   18 overlaps   11 atoms,    68 shells and    11 DB shells.   NGrid=       604
 Symmetry reduced   302 angular points to   302 for atom    2.
 IPart=  3 Atom   2 batch   19 overlaps   11 atoms,    46 shells and    11 DB shells.   NGrid=       604
 IPart=  4 Atom   2 batch   20 overlaps   11 atoms,    33 shells and     7 DB shells.   NGrid=       604
 Symmetry reduced   302 angular points to   302 for atom    2.
 IPart=  3 Atom   2 batch   21 overlaps   11 atoms,    14 shells and     0 DB shells.   NGrid=       604
 IPart=  4 Atom   2 batch   22 overlaps   11 atoms,     8 shells and     0 DB shells.   NGrid=       604
 Pruned (  99, 590) grid will be used in numerical quadrature.
 IPart=  0 Atom number   3 atomic number  1 has       23466 grid points.
 IPart=  0 Atom   3 batch    1 overlaps   11 atoms,   102 shells and    11 DB shells.   NGrid=      2838
 Symmetry reduced    86 angular points to    86 for atom    3.
 Pruned (  99, 590) grid will be used in numerical quadrature.
 IPart=  6 Atom number   3 atomic number  1 has       23466 grid points.
 IPart=  6 Atom   3 batch    2 overlaps   11 atoms,   102 shells and    11 DB shells.   NGrid=      1552
 Pruned (  99, 590) grid will be used in numerical quadrature.
 Symmetry reduced   194 angular points to   194 for atom    3.
 IPart=  3 Atom number   3 atomic number  1 has       23466 grid points.
 IPart=  3 Atom   3 batch    3 overlaps   11 atoms,   106 shells and    11 DB shells.   NGrid=      2416
 Symmetry reduced   302 angular points to   302 for atom    3.
 Pruned (  99, 590) grid will be used in numerical quadrature.
 Pruned (  99, 590) grid will be used in numerical quadrature.
 IPart=  1 Atom number   3 atomic number  1 has       23466 grid points.
 IPart=  7 Atom number   3 atomic number  1 has       23466 grid points.
 IPart=  1 Atom   3 batch    4 overlaps   11 atoms,   106 shells and    11 DB shells.   NGrid=      1180
 IPart=  7 Atom   3 batch    5 overlaps   11 atoms,   108 shells and    11 DB shells.   NGrid=      1180
 Symmetry reduced   590 angular points to   590 for atom    3.
 Symmetry reduced   590 angular points to   590 for atom    3.
 Pruned (  99, 590) grid will be used in numerical quadrature.
 Pruned (  99, 590) grid will be used in numerical quadrature.
 IPart=  4 Atom number   3 atomic number  1 has       23466 grid points.
 IPart=  5 Atom number   3 atomic number  1 has       23466 grid points.
 IPart=  4 Atom   3 batch    6 overlaps   11 atoms,   108 shells and    11 DB shells.   NGrid=      1180
 IPart=  5 Atom   3 batch    7 overlaps   11 atoms,   111 shells and    11 DB shells.   NGrid=      1180
 Symmetry reduced   590 angular points to   590 for atom    3.
 Symmetry reduced   590 angular points to   590 for atom    3.
 Pruned (  99, 590) grid will be used in numerical quadrature.
 IPart=  2 Atom number   3 atomic number  1 has       23466 grid points.
 IPart=  2 Atom   3 batch    8 overlaps   11 atoms,   111 shells and    11 DB shells.   NGrid=      1180
 Symmetry reduced   590 angular points to   590 for atom    3.
 IPart=  1 Atom   3 batch    9 overlaps   11 atoms,   112 shells and    11 DB shells.   NGrid=      1180
 IPart=  7 Atom   3 batch   10 overlaps   11 atoms,   113 shells and    11 DB shells.   NGrid=      1180
 IPart=  4 Atom   3 batch   11 overlaps   11 atoms,   114 shells and    11 DB shells.   NGrid=      1180
 IPart=  5 Atom   3 batch   12 overlaps   11 atoms,   114 shells and    11 DB shells.   NGrid=      1180
 IPart=  2 Atom   3 batch   13 overlaps   11 atoms,   114 shells and    11 DB shells.   NGrid=       604
 Symmetry reduced   302 angular points to   302 for atom    3.
 IPart=  6 Atom   3 batch   14 overlaps   11 atoms,   113 shells and    11 DB shells.   NGrid=       604
 Symmetry reduced   302 angular points to   302 for atom    3.
 IPart=  6 Atom   3 batch   15 overlaps   11 atoms,   110 shells and    11 DB shells.   NGrid=       604
 IPart=  2 Atom   3 batch   16 overlaps   11 atoms,   106 shells and    11 DB shells.   NGrid=       604
 IPart=  3 Atom   3 batch   17 overlaps   11 atoms,    97 shells and    11 DB shells.   NGrid=       604
 IPart=  1 Atom   3 batch   18 overlaps   11 atoms,    82 shells and    11 DB shells.   NGrid=       604
 IPart=  4 Atom   3 batch   19 overlaps   11 atoms,    55 shells and    10 DB shells.   NGrid=       604
 Symmetry reduced   302 angular points to   302 for atom    3.
 Symmetry reduced   302 angular points to   302 for atom    3.
 IPart=  2 Atom   3 batch   20 overlaps   11 atoms,    34 shells and     7 DB shells.   NGrid=       604
 IPart=  0 Atom   3 batch   21 overlaps   11 atoms,    13 shells and     0 DB shells.   NGrid=       604
 Symmetry reduced   302 angular points to   302 for atom    3.
 IPart=  7 Atom   3 batch   22 overlaps   11 atoms,     7 shells and     0 DB shells.   NGrid=       604
 Symmetry reduced   302 angular points to   302 for atom    3.
 Pruned (  99, 590) grid will be used in numerical quadrature.
 IPart=  6 Atom number   4 atomic number  1 has       23466 grid points.
 IPart=  6 Atom   4 batch    1 overlaps   11 atoms,   108 shells and    11 DB shells.   NGrid=      2838
 Symmetry reduced    86 angular points to    86 for atom    4.
 Pruned (  99, 590) grid will be used in numerical quadrature.
 Pruned (  99, 590) grid will be used in numerical quadrature.
 IPart=  2 Atom number   4 atomic number  1 has       23466 grid points.
 IPart=  4 Atom number   4 atomic number  1 has       23466 grid points.
 IPart=  2 Atom   4 batch    2 overlaps   11 atoms,   109 shells and    11 DB shells.   NGrid=      1552
 Pruned (  99, 590) grid will be used in numerical quadrature.
 Symmetry reduced   194 angular points to   194 for atom    4.
 IPart=  5 Atom number   4 atomic number  1 has       23466 grid points.
 IPart=  4 Atom   4 batch    3 overlaps   11 atoms,   111 shells and    11 DB shells.   NGrid=      2416
 IPart=  5 Atom   4 batch    4 overlaps   11 atoms,   111 shells and    11 DB shells.   NGrid=      1180
 Symmetry reduced   302 angular points to   302 for atom    4.
 Symmetry reduced   590 angular points to   590 for atom    4.
 Pruned (  99, 590) grid will be used in numerical quadrature.
 IPart=  0 Atom number   4 atomic number  1 has       23466 grid points.
 IPart=  0 Atom   4 batch    5 overlaps   11 atoms,   112 shells and    11 DB shells.   NGrid=      1180
 Pruned (  99, 590) grid will be used in numerical quadrature.
 Symmetry reduced   590 angular points to   590 for atom    4.
 IPart=  7 Atom number   4 atomic number  1 has       23466 grid points.
 IPart=  7 Atom   4 batch    6 overlaps   11 atoms,   112 shells and    11 DB shells.   NGrid=      1180
 Symmetry reduced   590 angular points to   590 for atom    4.
 Pruned (  99, 590) grid will be used in numerical quadrature.
 IPart=  3 Atom number   4 atomic number  1 has       23466 grid points.
 IPart=  3 Atom   4 batch    7 overlaps   11 atoms,   114 shells and    11 DB shells.   NGrid=      1180
 Symmetry reduced   590 angular points to   590 for atom    4.
 Pruned (  99, 590) grid will be used in numerical quadrature.
 IPart=  1 Atom number   4 atomic number  1 has       23466 grid points.
 IPart=  1 Atom   4 batch    8 overlaps   11 atoms,   114 shells and    11 DB shells.   NGrid=      1180
 Symmetry reduced   590 angular points to   590 for atom    4.
 IPart=  5 Atom   4 batch    9 overlaps   11 atoms,   114 shells and    11 DB shells.   NGrid=      1180
 IPart=  0 Atom   4 batch   10 overlaps   11 atoms,   114 shells and    11 DB shells.   NGrid=      1180
 IPart=  7 Atom   4 batch   11 overlaps   11 atoms,   114 shells and    11 DB shells.   NGrid=      1180
 IPart=  3 Atom   4 batch   12 overlaps   11 atoms,   114 shells and    11 DB shells.   NGrid=      1180
 IPart=  1 Atom   4 batch   13 overlaps   11 atoms,   114 shells and    11 DB shells.   NGrid=       604
 Symmetry reduced   302 angular points to   302 for atom    4.
 IPart=  2 Atom   4 batch   14 overlaps   11 atoms,   113 shells and    11 DB shells.   NGrid=       604
 Symmetry reduced   302 angular points to   302 for atom    4.
 IPart=  2 Atom   4 batch   15 overlaps   11 atoms,   110 shells and    11 DB shells.   NGrid=       604
 IPart=  1 Atom   4 batch   16 overlaps   11 atoms,   106 shells and    11 DB shells.   NGrid=       604
 IPart=  1 Atom   4 batch   17 overlaps   11 atoms,    97 shells and    11 DB shells.   NGrid=       604
 IPart=  2 Atom   4 batch   18 overlaps   11 atoms,    74 shells and    11 DB shells.   NGrid=       604
 IPart=  4 Atom   4 batch   19 overlaps   11 atoms,    52 shells and    10 DB shells.   NGrid=       604
 IPart=  6 Atom   4 batch   20 overlaps   11 atoms,    33 shells and     7 DB shells.   NGrid=       604
 Symmetry reduced   302 angular points to   302 for atom    4.
 IPart=  3 Atom   4 batch   21 overlaps   11 atoms,    13 shells and     0 DB shells.   NGrid=       604
 Symmetry reduced   302 angular points to   302 for atom    4.
 IPart=  7 Atom   4 batch   22 overlaps   11 atoms,     7 shells and     0 DB shells.   NGrid=       604
 Symmetry reduced   302 angular points to   302 for atom    4.
 Pruned (  99, 590) grid will be used in numerical quadrature.
 IPart=  5 Atom number   5 atomic number  1 has       23466 grid points.
 IPart=  5 Atom   5 batch    1 overlaps   11 atoms,   108 shells and    11 DB shells.   NGrid=      2838
 Symmetry reduced    86 angular points to    86 for atom    5.
 Pruned (  99, 590) grid will be used in numerical quadrature.
 IPart=  6 Atom number   5 atomic number  1 has       23466 grid points.
 IPart=  6 Atom   5 batch    2 overlaps   11 atoms,   109 shells and    11 DB shells.   NGrid=      1552
 Pruned (  99, 590) grid will be used in numerical quadrature.
 Symmetry reduced   194 angular points to   194 for atom    5.
 IPart=  4 Atom number   5 atomic number  1 has       23466 grid points.
 IPart=  4 Atom   5 batch    3 overlaps   11 atoms,   111 shells and    11 DB shells.   NGrid=      2416
 Symmetry reduced   302 angular points to   302 for atom    5.
 Pruned (  99, 590) grid will be used in numerical quadrature.
 IPart=  3 Atom number   5 atomic number  1 has       23466 grid points.
 IPart=  3 Atom   5 batch    4 overlaps   11 atoms,   111 shells and    11 DB shells.   NGrid=      1180
 Symmetry reduced   590 angular points to   590 for atom    5.
 Pruned (  99, 590) grid will be used in numerical quadrature.
 Pruned (  99, 590) grid will be used in numerical quadrature.
 IPart=  2 Atom number   5 atomic number  1 has       23466 grid points.
 Pruned (  99, 590) grid will be used in numerical quadrature.
 IPart=  0 Atom number   5 atomic number  1 has       23466 grid points.
 IPart=  2 Atom   5 batch    5 overlaps   11 atoms,   112 shells and    11 DB shells.   NGrid=      1180
 IPart=  1 Atom number   5 atomic number  1 has       23466 grid points.
 Pruned (  99, 590) grid will be used in numerical quadrature.
 IPart=  0 Atom   5 batch    7 overlaps   11 atoms,   114 shells and    11 DB shells.   NGrid=      1180
 IPart=  1 Atom   5 batch    8 overlaps   11 atoms,   114 shells and    11 DB shells.   NGrid=      1180
 Symmetry reduced   590 angular points to   590 for atom    5.
 Symmetry reduced   590 angular points to   590 for atom    5.
 Symmetry reduced   590 angular points to   590 for atom    5.
 IPart=  7 Atom number   5 atomic number  1 has       23466 grid points.
 IPart=  7 Atom   5 batch    6 overlaps   11 atoms,   112 shells and    11 DB shells.   NGrid=      1180
 Symmetry reduced   590 angular points to   590 for atom    5.
 IPart=  3 Atom   5 batch    9 overlaps   11 atoms,   114 shells and    11 DB shells.   NGrid=      1180
 IPart=  2 Atom   5 batch   10 overlaps   11 atoms,   114 shells and    11 DB shells.   NGrid=      1180
 IPart=  7 Atom   5 batch   11 overlaps   11 atoms,   114 shells and    11 DB shells.   NGrid=      1180
 IPart=  0 Atom   5 batch   12 overlaps   11 atoms,   114 shells and    11 DB shells.   NGrid=      1180
 IPart=  1 Atom   5 batch   13 overlaps   11 atoms,   114 shells and    11 DB shells.   NGrid=       604
 Symmetry reduced   302 angular points to   302 for atom    5.
 IPart=  6 Atom   5 batch   14 overlaps   11 atoms,   113 shells and    11 DB shells.   NGrid=       604
 Symmetry reduced   302 angular points to   302 for atom    5.
 IPart=  6 Atom   5 batch   15 overlaps   11 atoms,   110 shells and    11 DB shells.   NGrid=       604
 IPart=  1 Atom   5 batch   16 overlaps   11 atoms,   106 shells and    11 DB shells.   NGrid=       604
 IPart=  1 Atom   5 batch   17 overlaps   11 atoms,    97 shells and    11 DB shells.   NGrid=       604
 IPart=  6 Atom   5 batch   18 overlaps   11 atoms,    74 shells and    11 DB shells.   NGrid=       604
 IPart=  4 Atom   5 batch   19 overlaps   11 atoms,    52 shells and    10 DB shells.   NGrid=       604
 IPart=  5 Atom   5 batch   20 overlaps   11 atoms,    33 shells and     7 DB shells.   NGrid=       604
 Symmetry reduced   302 angular points to   302 for atom    5.
 IPart=  0 Atom   5 batch   21 overlaps   11 atoms,    13 shells and     0 DB shells.   NGrid=       604
 Symmetry reduced   302 angular points to   302 for atom    5.
 IPart=  4 Atom   5 batch   22 overlaps   11 atoms,     7 shells and     0 DB shells.   NGrid=       604
 Pruned (  99, 590) grid will be used in numerical quadrature.
 IPart=  3 Atom number   6 atomic number  1 has       23164 grid points.
 IPart=  3 Atom   6 batch    1 overlaps   11 atoms,   111 shells and    11 DB shells.   NGrid=      2838
 Symmetry reduced    86 angular points to    86 for atom    6.
 Pruned (  99, 590) grid will be used in numerical quadrature.
 IPart=  6 Atom number   6 atomic number  1 has       23164 grid points.
 Pruned (  99, 590) grid will be used in numerical quadrature.
 IPart=  6 Atom   6 batch    2 overlaps   11 atoms,   112 shells and    11 DB shells.   NGrid=      1552
 IPart=  7 Atom number   6 atomic number  1 has       23164 grid points.
 Symmetry reduced   194 angular points to   194 for atom    6.
 Pruned (  99, 590) grid will be used in numerical quadrature.
 IPart=  7 Atom   6 batch    3 overlaps   11 atoms,   113 shells and    11 DB shells.   NGrid=      2416
 IPart=  5 Atom number   6 atomic number  1 has       23164 grid points.
 Symmetry reduced   302 angular points to   302 for atom    6.
 IPart=  5 Atom   6 batch    4 overlaps   11 atoms,   114 shells and    11 DB shells.   NGrid=      1180
 Symmetry reduced   590 angular points to   590 for atom    6.
 Pruned (  99, 590) grid will be used in numerical quadrature.
 Pruned (  99, 590) grid will be used in numerical quadrature.
 IPart=  2 Atom number   6 atomic number  1 has       23164 grid points.
 IPart=  0 Atom number   6 atomic number  1 has       23164 grid points.
 IPart=  2 Atom   6 batch    6 overlaps   11 atoms,   114 shells and    11 DB shells.   NGrid=      1180
 IPart=  0 Atom   6 batch    5 overlaps   11 atoms,   114 shells and    11 DB shells.   NGrid=      1180
 Symmetry reduced   590 angular points to   590 for atom    6.
 Symmetry reduced   590 angular points to   590 for atom    6.
 Pruned (  99, 590) grid will be used in numerical quadrature.
 IPart=  4 Atom number   6 atomic number  1 has       23164 grid points.
 IPart=  4 Atom   6 batch    7 overlaps   11 atoms,   114 shells and    11 DB shells.   NGrid=      1180
 Symmetry reduced   590 angular points to   590 for atom    6.
 Pruned (  99, 590) grid will be used in numerical quadrature.
 IPart=  1 Atom number   6 atomic number  1 has       23164 grid points.
 IPart=  1 Atom   6 batch    8 overlaps   11 atoms,   114 shells and    11 DB shells.   NGrid=      1180
 Symmetry reduced   590 angular points to   590 for atom    6.
 IPart=  5 Atom   6 batch    9 overlaps   11 atoms,   114 shells and    11 DB shells.   NGrid=      1180
 IPart=  0 Atom   6 batch   10 overlaps   11 atoms,   114 shells and    11 DB shells.   NGrid=      1180
 IPart=  2 Atom   6 batch   11 overlaps   11 atoms,   114 shells and    11 DB shells.   NGrid=      1180
 IPart=  4 Atom   6 batch   12 overlaps   11 atoms,   114 shells and    11 DB shells.   NGrid=      1180
 IPart=  1 Atom   6 batch   13 overlaps   11 atoms,   114 shells and    11 DB shells.   NGrid=       604
 Symmetry reduced   302 angular points to   302 for atom    6.
 IPart=  6 Atom   6 batch   14 overlaps   11 atoms,   114 shells and    11 DB shells.   NGrid=       604
 Symmetry reduced   302 angular points to   302 for atom    6.
 IPart=  1 Atom   6 batch   15 overlaps   11 atoms,   110 shells and    11 DB shells.   NGrid=       604
 IPart=  6 Atom   6 batch   16 overlaps   11 atoms,   107 shells and    11 DB shells.   NGrid=       604
 IPart=  1 Atom   6 batch   17 overlaps   11 atoms,    98 shells and    11 DB shells.   NGrid=       604
 IPart=  6 Atom   6 batch   18 overlaps   11 atoms,    70 shells and    11 DB shells.   NGrid=       604
 IPart=  7 Atom   6 batch   19 overlaps   11 atoms,    49 shells and    11 DB shells.   NGrid=       604
 IPart=  4 Atom   6 batch   20 overlaps   11 atoms,    31 shells and     7 DB shells.   NGrid=       604
 Symmetry reduced   302 angular points to   302 for atom    6.
 IPart=  2 Atom   6 batch   21 overlaps   11 atoms,    14 shells and     0 DB shells.   NGrid=       604
 Symmetry reduced   302 angular points to   302 for atom    6.
 IPart=  3 Atom   6 batch   22 overlaps   11 atoms,     7 shells and     0 DB shells.   NGrid=       302
 Symmetry reduced   302 angular points to   302 for atom    6.
 Pruned (  99, 590) grid will be used in numerical quadrature.
 IPart=  7 Atom number   7 atomic number  1 has       23164 grid points.
 IPart=  7 Atom   7 batch    1 overlaps   11 atoms,   111 shells and    11 DB shells.   NGrid=      2838
 Symmetry reduced    86 angular points to    86 for atom    7.
 Pruned (  99, 590) grid will be used in numerical quadrature.
 IPart=  5 Atom number   7 atomic number  1 has       23164 grid points.
 IPart=  5 Atom   7 batch    2 overlaps   11 atoms,   112 shells and    11 DB shells.   NGrid=      1552
 Symmetry reduced   194 angular points to   194 for atom    7.
 Pruned (  99, 590) grid will be used in numerical quadrature.
 IPart=  3 Atom number   7 atomic number  1 has       23164 grid points.
 Pruned (  99, 590) grid will be used in numerical quadrature.
 IPart=  3 Atom   7 batch    3 overlaps   11 atoms,   113 shells and    11 DB shells.   NGrid=      2416
 IPart=  6 Atom number   7 atomic number  1 has       23164 grid points.
 Symmetry reduced   302 angular points to   302 for atom    7.
 IPart=  6 Atom   7 batch    4 overlaps   11 atoms,   114 shells and    11 DB shells.   NGrid=      1180
 Pruned (  99, 590) grid will be used in numerical quadrature.
 Symmetry reduced   590 angular points to   590 for atom    7.
 IPart=  4 Atom number   7 atomic number  1 has       23164 grid points.
 IPart=  4 Atom   7 batch    5 overlaps   11 atoms,   114 shells and    11 DB shells.   NGrid=      1180
 Symmetry reduced   590 angular points to   590 for atom    7.
 Pruned (  99, 590) grid will be used in numerical quadrature.
 IPart=  2 Atom number   7 atomic number  1 has       23164 grid points.
 IPart=  2 Atom   7 batch    6 overlaps   11 atoms,   114 shells and    11 DB shells.   NGrid=      1180
 Symmetry reduced   590 angular points to   590 for atom    7.
 Pruned (  99, 590) grid will be used in numerical quadrature.
 IPart=  0 Atom number   7 atomic number  1 has       23164 grid points.
 IPart=  0 Atom   7 batch    7 overlaps   11 atoms,   114 shells and    11 DB shells.   NGrid=      1180
 Symmetry reduced   590 angular points to   590 for atom    7.
 Pruned (  99, 590) grid will be used in numerical quadrature.
 IPart=  1 Atom number   7 atomic number  1 has       23164 grid points.
 IPart=  1 Atom   7 batch    8 overlaps   11 atoms,   114 shells and    11 DB shells.   NGrid=      1180
 Symmetry reduced   590 angular points to   590 for atom    7.
 IPart=  4 Atom   7 batch    9 overlaps   11 atoms,   114 shells and    11 DB shells.   NGrid=      1180
 IPart=  6 Atom   7 batch   10 overlaps   11 atoms,   114 shells and    11 DB shells.   NGrid=      1180
 IPart=  2 Atom   7 batch   11 overlaps   11 atoms,   114 shells and    11 DB shells.   NGrid=      1180
 IPart=  0 Atom   7 batch   12 overlaps   11 atoms,   114 shells and    11 DB shells.   NGrid=      1180
 IPart=  1 Atom   7 batch   13 overlaps   11 atoms,   114 shells and    11 DB shells.   NGrid=       604
 Symmetry reduced   302 angular points to   302 for atom    7.
 IPart=  5 Atom   7 batch   14 overlaps   11 atoms,   114 shells and    11 DB shells.   NGrid=       604
 Symmetry reduced   302 angular points to   302 for atom    7.
[...]
 ! A13   A(2,8,9)              111.5827         -DE/DX =    0.0                 !
 ! A14   A(2,8,10)             108.6565         -DE/DX =    0.0                 !
 ! A15   A(2,8,11)             111.5827         -DE/DX =    0.0                 !
 ! A16   A(9,8,10)             107.8906         -DE/DX =    0.0                 !
 ! A17   A(9,8,11)             109.0985         -DE/DX =    0.0                 !
 ! A18   A(10,8,11)            107.8906         -DE/DX =    0.0                 !
 ! D1    D(3,1,2,6)             57.9048         -DE/DX =    0.0                 !
 ! D2    D(3,1,2,7)            -57.9048         -DE/DX =    0.0                 !
 ! D3    D(3,1,2,8)            180.0            -DE/DX =    0.0                 !
 ! D4    D(4,1,2,6)            -62.3164         -DE/DX =    0.0                 !
 ! D5    D(4,1,2,7)           -178.1259         -DE/DX =    0.0                 !
 ! D6    D(4,1,2,8)             59.7789         -DE/DX =    0.0                 !
 ! D7    D(5,1,2,6)            178.1259         -DE/DX =    0.0                 !
 ! D8    D(5,1,2,7)             62.3164         -DE/DX =    0.0                 !
 ! D9    D(5,1,2,8)            -59.7789         -DE/DX =    0.0                 !
 ! D10   D(1,2,8,9)            -61.1677         -DE/DX =    0.0                 !
 ! D11   D(1,2,8,10)           180.0            -DE/DX =    0.0                 !
 ! D12   D(1,2,8,11)            61.1677         -DE/DX =    0.0                 !
 ! D13   D(6,2,8,9)             57.0663         -DE/DX =    0.0                 !
 ! D14   D(6,2,8,10)           -61.766          -DE/DX =    0.0                 !
 ! D15   D(6,2,8,11)           179.4018         -DE/DX =    0.0                 !
 ! D16   D(7,2,8,9)           -179.4018         -DE/DX =    0.0                 !
 ! D17   D(7,2,8,10)            61.766          -DE/DX =    0.0                 !
 ! D18   D(7,2,8,11)           -57.0663         -DE/DX =    0.0                 !
 --------------------------------------------------------------------------------
 GradGradGradGradGradGradGradGradGradGradGradGradGradGradGradGradGradGrad

 Leave Link  103 at Sun Sep 28 23:28:41 2025, MaxMem=  1572864000 cpu:               0.1 elap:               0.0
 (Enter /software/sse/easybuild/prefix/software/Gaussian/16.C.01-avx2-nsc1/g16/l9999.exe)

 ----------------------------------------------------------------------

 Electric dipole moment (input orientation):
 (Debye = 10**-18 statcoulomb cm , SI units = C m)
                  (au)            (Debye)         (10**-30 SI)
   Tot        0.152063D+01      0.386506D+01      0.128924D+02
   x         -0.133762D+01     -0.339988D+01     -0.113408D+02
   y         -0.493011D+00     -0.125311D+01     -0.417993D+01
   z         -0.529189D+00     -0.134507D+01     -0.448665D+01

 Dipole polarizability, Alpha (input orientation).
 (esu units = cm**3 , SI units = C**2 m**2 J**-1)
 Alpha(0;0):
               (au)            (10**-24 esu)      (10**-40 SI)
   iso        0.301734D+02      0.447124D+01      0.497492D+01
   aniso      0.503883D+01      0.746678D+00      0.830791D+00
   xx         0.319636D+02      0.473651D+01      0.527008D+01
   yx         0.131026D+01      0.194161D+00      0.216033D+00
   yy         0.294628D+02      0.436594D+01      0.485776D+01
   zx         0.147166D+01      0.218077D+00      0.242643D+00
   zy         0.146395D+01      0.216935D+00      0.241372D+00
   zz         0.290939D+02      0.431126D+01      0.479693D+01

 First dipole hyperpolarizability, Beta (input orientation).
 ||, _|_  parallel and perpendicular components, (z) with respect to z axis,
 vector components x,y,z.  Values do not include the 1/n! factor of 1/2.
 (esu units = statvolt**-1 cm**4 , SI units = C**3 m**3 J**-2)
 Beta(0;0,0):
               (au)            (10**-30 esu)      (10**-50 SI)
   || (z)    -0.100478D+01     -0.868052D-02     -0.322169D-02
   _|_(z)    -0.334927D+00     -0.289351D-02     -0.107390D-02
   x         -0.228013D+02     -0.196985D+00     -0.731092D-01
   y         -0.334660D+01     -0.289121D-01     -0.107304D-01
   z         -0.502390D+01     -0.434026D-01     -0.161084D-01
   ||         0.471737D+01      0.407544D-01      0.151256D-01
   xxx        0.278547D+01      0.240643D-01      0.893122D-02
   xxy       -0.831943D+00     -0.718734D-02     -0.266751D-02
   yxy       -0.499037D+01     -0.431129D-01     -0.160009D-01
   yyy        0.256292D+01      0.221416D-01      0.821765D-02
   xxz        0.469990D+00      0.406035D-02      0.150696D-02
   yxz       -0.136603D+01     -0.118014D-01     -0.437997D-02
   yyz       -0.613676D+01     -0.530168D-01     -0.196767D-01
   zxz       -0.539553D+01     -0.466132D-01     -0.173000D-01
   zyz       -0.284651D+01     -0.245916D-01     -0.912694D-02
   zzz        0.399214D+01      0.344890D-01      0.128002D-01

 ----------------------------------------------------------------------

 Dipole orientation:
     7         -0.09149839         -0.06718384          2.29178704
     6          0.88845877          0.65237762         -0.30042611
     1          0.96053928          0.70530478          3.67704157
     1         -0.07022864         -1.95555167          2.53288817
     1         -1.88687061          0.51849875          2.53288817
     1          2.82329949          0.01373039         -0.36796999
     1          0.85841180          2.68967388         -0.36796999
     6         -0.72565153         -0.53282883         -2.34457383
     1         -0.69199370         -2.57704231         -2.24007082
     1          0.02001023          0.01469455         -4.16543636
     1         -2.66601103          0.11133466         -2.24007082

 Electric dipole moment (dipole orientation):
 (Debye = 10**-18 statcoulomb cm , SI units = C m)
                  (au)            (Debye)         (10**-30 SI)
   Tot        0.152063D+01      0.386506D+01      0.128924D+02
   x          0.000000D+00      0.000000D+00      0.000000D+00
   y          0.000000D+00      0.000000D+00      0.000000D+00
   z          0.152063D+01      0.386506D+01      0.128924D+02

 Dipole polarizability, Alpha (dipole orientation).
 (esu units = cm**3 , SI units = C**2 m**2 J**-1)
 Alpha(0;0):
               (au)            (10**-24 esu)      (10**-40 SI)
   iso        0.301734D+02      0.447124D+01      0.497492D+01
   aniso      0.503883D+01      0.746678D+00      0.830791D+00
   xx         0.288369D+02      0.427319D+01      0.475457D+01
   yx         0.773616D+00      0.114638D+00      0.127552D+00
   yy         0.283514D+02      0.420125D+01      0.467452D+01
   zx         0.458719D+00      0.679751D-01      0.756325D-01
   zy         0.336827D+00      0.499127D-01      0.555353D-01
   zz         0.333319D+02      0.493928D+01      0.549569D+01

 First dipole hyperpolarizability, Beta (dipole orientation).
 ||, _|_  parallel and perpendicular components, (z) with respect to z axis,
 vector components x,y,z.  Values do not include the 1/n! factor of 1/2.
 (esu units = statvolt**-1 cm**4 , SI units = C**3 m**3 J**-2)
 Beta(0;0,0):
               (au)            (10**-30 esu)      (10**-50 SI)
   || (z)     0.457809D+01      0.395511D-01      0.146790D-01
   _|_(z)     0.152603D+01      0.131837D-01      0.489300D-02
   x         -0.458572D+01     -0.396170D-01     -0.147035D-01
   y         -0.336720D+01     -0.290899D-01     -0.107964D-01
   z          0.228904D+02      0.197755D+00      0.733950D-01
   ||         0.471737D+01      0.407544D-01      0.151256D-01
   xxx       -0.680319D+01     -0.587743D-01     -0.218135D-01
   xxy        0.341045D+01      0.294636D-01      0.109351D-01
   yxy       -0.133561D+00     -0.115386D-02     -0.428245D-03
   yyy       -0.850395D+01     -0.734675D-01     -0.272668D-01
   xxz        0.275911D+01      0.238366D-01      0.884672D-02
   yxz        0.145624D+01      0.125808D-01      0.466923D-02
   yyz        0.184517D+01      0.159409D-01      0.591630D-02
   zxz        0.540818D+01      0.467225D-01      0.173406D-01
   zyz        0.397111D+01      0.343073D-01      0.127328D-01
   zzz        0.302585D+01      0.261410D-01      0.970198D-02

 ----------------------------------------------------------------------

 Test job not archived.
 1\1\NSC-N341\Freq\RHF\Aug-CC-pVTZ\C2H8N1(1+)\X_DAVVA\28-Sep-2025\0\\#P
  Geom=AllCheck Guess=TCheck SCRF=Check Test GenChk RHF/Aug-CC-pVTZ Fre
 q\\ethylammonium\\1,1\N,-1.0949475284,-0.3501718023,-0.3909838283\C,0.
 4131605418,-0.3662290255,-0.2463150089\H,-1.416130256,-1.0825258018,-1
 .0032657571\H,-1.4137980372,0.5274407223,-0.7692671242\H,-1.5463216029
 ,-0.4762949696,0.500824466\H,0.8092551852,-0.2596548967,-1.2440930486\
 H,0.6659171316,-1.3452997003,0.1296434302\C,0.8681406261,0.7434675469,
 0.6781361479\H,0.5982195288,1.7191679903,0.2925038477\H,1.9451179538,0
 .7052423643,0.7603010062\H,0.4542154701,0.6284788534,1.6726232472\\Ver
 sion=ES64L-G16RevC.01\State=1-A'\HF=-134.6756406\RMSD=2.865e-09\RMSF=4
 .981e-07\ZeroPoint=0.1143371\Thermal=0.1187175\ETot=-134.5569231\HTot=
 -134.5559789\GTot=-134.5869401\Dipole=-1.3376163,-0.4930115,-0.5291893
 \DipoleDeriv=-0.6053422,-0.0599201,-0.0936877,-0.0297817,-0.1994014,-0
 .0332297,-0.0698697,-0.0363744,-0.1973223,0.8194806,0.0596036,0.111009
 3,0.0293813,0.2048878,0.0013816,0.0871249,0.004535,0.2196935,0.2278791
 ,0.0168087,0.0113003,0.0381903,0.2840466,0.0333511,0.0281979,0.0311201
 ,0.2744235,0.2484992,-0.0289946,0.030196,-0.030334,0.2649629,-0.018504
 9,0.0331843,-0.0189064,0.2578588,0.2631832,0.0232964,-0.0379779,0.0259
 371,0.2448553,-0.0082599,-0.0399377,-0.0079942,0.2632824,0.0095767,-0.
 0133065,-0.0311567,-0.0123354,0.078194,0.0044985,-0.0034772,-0.0161568
 ,-0.0422678,0.0077712,-0.0418462,-0.012838,-0.0122431,-0.0336939,0.011
 3026,-0.0163552,0.0287678,0.0714255,-0.0482109,0.0069701,-0.0127578,-0
 .0138224,0.1037317,-0.0197127,-0.0291898,-0.0175431,0.1099406,0.059068
 2,0.0553747,-0.0394608,0.0410261,-0.0519662,0.0313418,-0.0516377,0.050
 3024,0.011048,-0.0169505,0.0104696,-0.0038366,0.0098239,0.0711419,-0.0
 210826,-0.0043469,-0.0210152,0.0820546,0.0350454,-0.0284558,0.0792099,
 -0.045842,0.0332413,0.0189142,0.0663071,0.0032649,-0.0501368\Polar=31.
 9635823,1.3102637,29.4627909,1.4716551,1.4639481,29.0938502\PolarDeriv
 =-4.1450353,-0.4497376,1.7805056,-1.2303805,-0.1545294,2.024912,0.0734
 005,1.9085184,-0.885964,0.0506363,2.3103064,0.990917,-0.8104301,-0.003
 9631,2.296842,2.124543,0.969645,-1.380899,4.862617,0.4490656,-2.407405
 4,1.3750315,-0.0793922,-2.8617031,0.1445889,-1.8602903,2.8740215,0.005
 4205,-2.822609,-1.2923338,1.0857678,-0.0154155,-3.2781323,-2.3285156,-
 0.7970162,3.5142027,-1.5766192,-1.2482269,-1.1112705,-1.0281908,-0.586
 3871,-0.9855971,-1.9287559,-1.6546931,-3.1053793,-0.8813415,-1.7195512
 ,-1.6962125,-1.5403697,-0.821696,-1.7489059,-1.4643665,-1.5565437,-2.4
 129224,-1.3377246,1.1496499,-1.0494241,-0.4968433,0.3487707,-0.6763022
 ,2.1109674,-1.5934554,3.6181744,0.6477133,-1.2236438,1.2097223,-0.8172
 622,0.432465,-1.2042265,-0.9535893,0.8747939,-1.2253925,-2.0790872,-0.
 2643333,-0.6545125,1.4647656,0.190828,-1.4030922,-0.3472587,-0.8110773
 ,-0.4068904,0.1760933,0.4941159,-0.435733,2.582308,0.3331491,0.80123,-
 1.8877876,-0.4511407,3.6554083,1.3931457,-0.0072032,0.8412788,-1.62524
 64,0.1651931,1.9759263,0.3386723,0.7930142,-0.1109724,-0.0571104,-0.64
 73377,0.542867,-2.2149857,-0.0025187,-0.8929267,1.8983738,-0.2640081,-
 6.6626854,0.7252721,-1.3033495,1.3843761,0.2548236,-0.0928902,0.720203
 8,-1.7849946,1.3805267,-6.7471226,-0.2886239,1.1110547,-1.1532361,0.70
 01874,-0.2471974,1.9820279,0.8227447,-1.0872006,0.777738,-6.2678243,-0
 .1523523,1.9621424,-1.2959855,-0.0812304,2.5912428,0.2705495,2.0709983
 ,-3.3422239,0.0589426,3.0929074,1.1170679,-0.9573664,0.0381657,3.25839
 77,2.6597958,0.8786643,-4.0246168,-0.0061986,1.1635401,-1.4127998,-0.2
 012974,0.1519807,-0.6695812,1.4477163,-0.6213664,7.4203644,0.2457032,-
 1.148086,1.4949186,-0.5490186,0.1256331,-2.2091221,-0.5437512,1.149179
 2,-0.7378152,9.0155866,0.6995434,1.4635532,1.2755186,0.2549647,1.45529
 11,-0.0292654,0.9103142,0.5041456,-0.0424231,-0.1285939,-0.1717168,0.7
 257193,0.0159461,-0.2047459,0.9694764,0.0287174,0.9638716,-0.5841321,-
 0.0365962,-0.796444,1.5078046,-0.1173076,-2.1713001,-0.2956202,-0.5224
 895,0.1818468,0.0849898,0.6814374,-0.6062606,1.7954497,0.1454316,1.199
 5617,-1.2969236,0.2549093,7.5331106\HyperPolar=2.7854674,-0.8319433,-4
 .9903707,2.5629194,0.4699905,-1.3660256,-6.1367627,-5.3955285,-2.84651
 1,3.9921384\Quadrupole=2.6959625,-1.3813952,-1.3145673,1.507106,1.6812
 002,0.6474198\PG=CS [SG(C2H2N1),X(H6)]\NImag=0\\0.57625859,0.00387150,
 0.83235855,-0.02307233,0.00487255,0.82814745,-0.14718482,0.00617350,0.
 00133086,0.44335848,0.00613286,-0.11234314,0.00130239,-0.02288069,0.66
 877260,0.00129874,0.00130663,-0.11201329,-0.04787711,-0.04991222,0.684
 46830,-0.10653497,-0.09232625,-0.07624397,-0.00545856,-0.02946856,-0.0
 2384575,0.10510846,-0.08404592,-0.27955548,-0.17034663,-0.00233032,0.0
 0535900,0.00408592,0.09255133,0.28980543,-0.06970014,-0.17121061,-0.21
 767950,-0.00239877,0.00125427,0.00062209,0.07710909,0.18566695,0.22186
 434,-0.10476136,0.10866141,-0.04664357,-0.00853552,0.03639793,-0.01556
 687,0.00493786,-0.01283797,0.00786368,0.10487373,0.09853645,-0.3670118
 8,0.12569079,0.00408728,0.00505409,-0.00176024,0.00990099,-0.02444825,
 0.01365352,-0.10956357,0.38509862,-0.04279280,0.12646800,-0.12964077,-
 0.00199018,0.00107904,0.00027546,0.01109822,-0.02535611,0.01465675,0.0
 4701339,-0.13718476,0.12602470,-0.14295400,-0.02285732,0.15659963,-0.0
 1448380,-0.00532652,0.03656580,0.00762742,0.00426786,-0.01415088,0.007
 51056,0.00000037,-0.01463958,0.14523913,-0.02149190,-0.08128496,0.0430
 4809,0.00022993,0.00104366,-0.00171453,0.01744036,0.00792598,-0.030109
 97,-0.01990013,-0.00119380,0.03612098,0.02274244,0.07368393,0.14582632
 ,0.04318487,-0.37717505,0.00184563,-0.00176223,0.01023415,0.01099489,0
 .00515260,-0.02040705,0.00585355,0.00061205,-0.01169140,-0.16055631,-0
 .04726144,0.39707399,-0.02893483,-0.00582164,0.04020411,-0.09354112,-0
 .00809049,0.08640254,0.00122680,-0.00006357,0.00097036,0.00150611,-0.0
 0015305,0.00093049,-0.00731536,0.00051888,-0.00314585,0.11291081,0.001
 37705,0.00041197,-0.00191487,-0.01194772,-0.06739976,0.03183777,-0.000
 53528,-0.00000407,0.00061319,0.00013480,0.00017746,-0.00078293,0.00065
 798,0.00043469,-0.00033283,0.01364323,0.06352281,-0.00600336,-0.001235
 93,0.01026508,0.10067114,0.03142206,-0.31747123,0.00117819,0.00026608,
 0.00042633,0.00108167,-0.00041703,0.00019226,-0.00278606,0.00009454,0.
 00054966,-0.10310178,-0.03064763,0.33195941,-0.02320943,0.04135673,-0.
 01868013,-0.07218859,0.04869594,-0.01651351,0.00152003,0.00076876,-0.0
 0005865,-0.00796936,-0.00201577,0.00015804,0.00174180,0.00077244,-0.00
 023689,0.00630912,-0.01338904,0.00386122,0.08808744,-0.00178248,0.0053
 7003,-0.00202636,0.06167907,-0.30455145,0.09666831,0.00090877,0.000416
 06,0.00026484,-0.00169157,0.00095894,-0.00026424,0.00093602,-0.0002648
 3,-0.00019529,-0.00025711,-0.00081167,0.00081857,-0.06341817,0.3202046
 5,-0.00087595,0.00104479,-0.00041837,-0.02357005,0.09613181,-0.1016720
 7,-0.00052863,0.00064656,-0.00028703,0.00016439,-0.00073995,0.00067941
 ,-0.00003132,-0.00060829,0.00039885,-0.00889638,0.03004726,-0.00930706
 ,0.02794672,-0.10142843,0.10010093,-0.02855431,-0.03860226,-0.03361642
 ,-0.09621242,-0.01354923,-0.00997614,-0.00881106,0.00134928,0.00016094
 ,0.00231111,-0.00078381,0.00047590,0.00232002,-0.00014462,-0.00084365,
 0.00747688,0.01148701,0.00713922,0.00524115,0.00544730,0.00676008,0.63
 669065,0.00106425,0.00437904,0.00258571,-0.02966201,-0.17769586,-0.061
 94884,0.00277787,-0.00029707,0.00016100,0.00058929,0.00291786,0.000500
 18,-0.00040700,-0.00029811,0.00070119,0.00260907,0.00557864,0.00329466
 ,-0.01187354,-0.02160351,-0.02306562,-0.02738971,0.58953588,-0.0022685
 3,-0.00155317,-0.00021646,-0.02270984,-0.06026761,-0.15322250,0.001289
 94,0.00001194,0.00001000,-0.00019473,-0.00012420,-0.00058618,0.0007047
 7,0.00120967,0.00262088,-0.01277093,-0.02727220,-0.01791146,0.00596570
 ,0.01023487,0.01150643,-0.02209421,-0.04352061,0.60428997,0.00188471,-
 0.00000109,0.00139018,0.00132772,-0.01382823,0.00474979,0.00029596,0.0
 0002943,-0.00004536,-0.00009112,-0.00008450,-0.00029579,-0.00004665,-0
 .00020745,0.00011197,0.00004827,0.00100301,0.00027185,-0.00008255,-0.0
 0215202,-0.00194185,-0.07527687,0.06417830,-0.02575624,0.07432354,-0.0
 0009249,0.00188669,0.00084196,0.00836489,-0.02501652,0.01042280,0.0001
 8122,0.00026071,-0.00022401,-0.00145836,-0.00077046,-0.00043407,-0.000
 01570,-0.00027810,0.00004795,0.00006486,0.00111679,-0.00021075,-0.0020
 0414,-0.00185056,-0.00400452,0.06292356,-0.28189767,0.09010036,-0.0686
 1533,0.30728146,0.00122880,0.00110549,0.00110752,0.00782414,-0.0257976
 9,0.01051013,0.00046362,-0.00004943,0.00001548,-0.00031680,0.00042535,
 0.00031975,-0.00021680,0.00012895,-0.00023666,0.00071193,0.00089157,0.
 00132208,-0.00262961,-0.00411305,-0.00291038,-0.02744290,0.09333416,-0
 .09818147,0.03084211,-0.09777032,0.09926911,0.00180436,-0.00161861,-0.
 00115992,-0.01061522,0.00065988,-0.00038536,-0.00023819,0.00036504,0.0
 0020621,0.00026337,0.00003327,0.00022312,0.00037571,0.00023058,0.00005
 503,0.00051745,-0.00005086,-0.00032554,0.00046166,-0.00033335,0.000100
 72,-0.34572957,0.01059267,-0.02209746,-0.00647135,0.00058801,-0.000272
 73,0.37117024,-0.00452337,-0.00556132,-0.00538983,-0.02751116,0.002948
 53,0.00098020,-0.00187999,0.00061388,-0.00014593,-0.00008885,-0.000601
 46,-0.00024762,0.00062862,-0.00011767,-0.00024196,0.00054788,0.0011043
 5,0.00025930,0.00036769,0.00080055,0.00116490,0.01406408,-0.05645410,-
 0.00069253,0.03403880,0.00052510,0.00209754,-0.01112572,0.05702966,-0.
 00345552,-0.00508674,-0.00371897,-0.02264854,0.00391961,-0.00118966,-0
 .00156800,0.00008832,0.00045651,0.00067132,-0.00018583,0.00010494,-0.0
 0017510,-0.00033254,-0.00049119,0.00036574,0.00104697,0.00048306,0.000
 43665,0.00024161,0.00084266,-0.01935405,-0.00105474,-0.05657389,-0.013
 61957,0.00001786,-0.00135224,0.02447307,0.00253222,0.05691128,0.002186
 07,0.00116402,-0.00010844,0.00353385,0.00125713,-0.01485212,0.00032625
 ,-0.00005392,0.00004354,-0.00004537,0.00004235,-0.00018084,-0.00001484
 ,-0.00019053,0.00009531,-0.00020414,-0.00238018,-0.00198655,0.00008872
 ,0.00066356,0.00087226,-0.09945558,-0.01247919,0.09993153,0.00408834,0
 .00006348,-0.01019176,-0.01153846,-0.00451797,0.03487400,0.10103517,0.
 00095405,0.00135049,0.00133621,0.01379723,0.00382884,-0.02996579,0.000
 44954,-0.00007619,0.00007675,-0.00024298,-0.00018112,0.00010154,-0.000
 62675,0.00034919,0.00009509,-0.00299805,-0.00413121,-0.00364387,0.0007
 3910,0.00133178,0.00081148,-0.01480159,-0.06416511,0.03187346,-0.01436
 092,-0.00125745,0.02974744,0.00065911,-0.00028752,-0.00118673,0.016431
 27,0.06323830,-0.00018522,0.00110413,0.00134236,0.00952272,0.00263057,
 -0.02054136,0.00005239,-0.00016619,0.00032209,0.00007398,0.00003030,-0
 .00033492,-0.00131416,-0.00057546,-0.00087619,-0.00167022,-0.00348630,
 -0.00050814,-0.00024954,-0.00020083,0.00106663,0.09879123,0.02901291,-
 0.29173531,0.00429292,0.00121273,-0.00986331,-0.00081715,-0.00031628,0
 .00452749,-0.10849694,-0.02924558,0.31660065\\0.00000005,-0.00000135,-
 0.00000106,0.,0.00000002,0.00000001,0.00000042,-0.00000030,-0.00000019
 ,-0.00000033,0.00000033,0.00000126,-0.00000020,0.00000133,0.,0.0000000
 4,-0.00000002,0.00000002,0.00000004,0.00000001,-0.00000002,0.00000071,
 -0.00000019,-0.00000007,-0.00000044,-0.00000006,0.00000039,0.00000010,
 -0.00000018,-0.00000013,-0.00000038,0.00000041,-0.00000020\\\@


 WHEN IT COMES TO CASH FLOW, IT SEEMS LIKE THE TIDE IS ALWAYS GOING OUT.
 Job cpu time:       0 days  0 hours 32 minutes 56.5 seconds.
 Elapsed time:       0 days  0 hours  4 minutes  8.7 seconds.
 File lengths (MBytes):  RWF=     85 Int=      0 D2E=      0 Chk=     16 Scr=      1
 Normal termination of Gaussian 16 at Sun Sep 28 23:28:41 2025.
