 Entering Gaussian System, Link 0=/software/sse/easybuild/prefix/software/Gaussian/16.C.01-avx2-nsc1/g16/g16.orig
 Input=methylammonium.wrap
 Output=methylammonium.log
 Initial command:
 /software/sse/easybuild/prefix/software/Gaussian/16.C.01-avx2-nsc1/g16/l1.exe "/scratch/local/Gau-1140160.inp" -scrdir="/scratch/local/"
 Entering Link 1 = /software/sse/easybuild/prefix/software/Gaussian/16.C.01-avx2-nsc1/g16/l1.exe PID=   1140161.
  
 Copyright (c) 1988-2019, Gaussian, Inc.  All Rights Reserved.
  
 This is part of the Gaussian(R) 16 program.  It is based on
 the Gaussian(R) 09 system (copyright 2009, Gaussian, Inc.),
 the Gaussian(R) 03 system (copyright 2003, Gaussian, Inc.),
 the Gaussian(R) 98 system (copyright 1998, Gaussian, Inc.),
 the Gaussian(R) 94 system (copyright 1995, Gaussian, Inc.),
 the Gaussian 92(TM) system (copyright 1992, Gaussian, Inc.),
 the Gaussian 90(TM) system (copyright 1990, Gaussian, Inc.),
 the Gaussian 88(TM) system (copyright 1988, Gaussian, Inc.),
 the Gaussian 86(TM) system (copyright 1986, Carnegie Mellon
 University), and the Gaussian 82(TM) system (copyright 1983,
 Carnegie Mellon University). Gaussian is a federally registered
 trademark of Gaussian, Inc.
  
 This software contains proprietary and confidential information,
 including trade secrets, belonging to Gaussian, Inc.
  
 This software is provided under written license and may be
 used, copied, transmitted, or stored only in accord with that
 written license.
  
 The following legend is applicable only to US Government
 contracts under FAR:
  
                    RESTRICTED RIGHTS LEGEND
  
 Use, reproduction and disclosure by the US Government is
 subject to restrictions as set forth in subparagraphs (a)
 and (c) of the Commercial Computer Software - Restricted
 Rights clause in FAR 52.227-19.
  
 Gaussian, Inc.
 340 Quinnipiac St., Bldg. 40, Wallingford CT 06492
  
  
 ---------------------------------------------------------------
 Warning -- This program may not be used in any manner that
 competes with the business of Gaussian, Inc. or will provide
 assistance to any competitor of Gaussian, Inc.  The licensee
 of this program is prohibited from giving any competitor of
 Gaussian, Inc. access to this program.  By using this program,
 the user acknowledges that Gaussian, Inc. is engaged in the
 business of creating and licensing software in the field of
 computational chemistry and represents and warrants to the
 licensee that it is not a competitor of Gaussian, Inc. and that
 it will not use this program in any manner prohibited above.
 ---------------------------------------------------------------
  

 Cite this work as:
 Gaussian 16, Revision C.01,
 M. J. Frisch, G. W. Trucks, H. B. Schlegel, G. E. Scuseria, 
 M. A. Robb, J. R. Cheeseman, G. Scalmani, V. Barone, 
 G. A. Petersson, H. Nakatsuji, X. Li, M. Caricato, A. V. Marenich, 
 J. Bloino, B. G. Janesko, R. Gomperts, B. Mennucci, H. P. Hratchian, 
 J. V. Ortiz, A. F. Izmaylov, J. L. Sonnenberg, D. Williams-Young, 
 F. Ding, F. Lipparini, F. Egidi, J. Goings, B. Peng, A. Petrone, 
 T. Henderson, D. Ranasinghe, V. G. Zakrzewski, J. Gao, N. Rega, 
 G. Zheng, W. Liang, M. Hada, M. Ehara, K. Toyota, R. Fukuda, 
 J. Hasegawa, M. Ishida, T. Nakajima, Y. Honda, O. Kitao, H. Nakai, 
 T. Vreven, K. Throssell, J. A. Montgomery, Jr., J. E. Peralta, 
 F. Ogliaro, M. J. Bearpark, J. J. Heyd, E. N. Brothers, K. N. Kudin, 
 V. N. Staroverov, T. A. Keith, R. Kobayashi, J. Normand, 
 K. Raghavachari, A. P. Rendell, J. C. Burant, S. S. Iyengar, 
 J. Tomasi, M. Cossi, J. M. Millam, M. Klene, C. Adamo, R. Cammi, 
 J. W. Ochterski, R. L. Martin, K. Morokuma, O. Farkas, 
 J. B. Foresman, and D. J. Fox, Gaussian, Inc., Wallingford CT, 2019.
 
 ******************************************
 Gaussian 16:  ES64L-G16RevC.01  3-Jul-2019
                30-Sep-2025 
 ******************************************
 %mem=12000MB
 %nprocshared=16
 Will use up to   16 processors via shared memory.
 %mem=32Gb
 %chk=methylammonium.chk
 ----------------------------------------------------------------------
 #P HF/aug-cc-pvtz Opt=tight Pop=(MK,Hirshfeld) iop(6/33=2) iop(6/42=6)
  maxdisk=128GB
 ----------------------------------------------------------------------
 1/7=10,18=20,19=15,38=1/1,3;
 2/9=110,12=2,17=6,18=5,40=1/2;
 3/5=16,6=1,7=10,11=9,25=1,30=1,71=1/1,2,3;
 4//1;
 5/5=2,38=5/2;
 6/7=2,8=2,9=2,10=2,15=8,20=1,28=1,33=2,42=6,79=1/1,2;
 7//1,2,3,16;
 1/7=10,18=20,19=15/3(2);
 2/9=110/2;
 99//99;
 2/9=110/2;
 3/5=16,6=1,7=10,11=9,25=1,30=1,71=1/1,2,3;
 4/5=5,16=3,69=1/1;
 5/5=2,38=5/2;
 7//1,2,3,16;
 1/7=10,18=20,19=15/3(-5);
 2/9=110/2;
 6/7=2,8=2,9=2,10=2,15=8,19=2,20=1,28=1,33=2,42=6,79=1/1,2;
 99/9=1/99;
 Leave Link    1 at Tue Sep 30 16:58:49 2025, MaxMem=  4294967296 cpu:               2.0 elap:               0.1
 (Enter /software/sse/easybuild/prefix/software/Gaussian/16.C.01-avx2-nsc1/g16/l101.exe)
 --------------
 methylammonium
 --------------
 Symbolic Z-matrix:
 Charge =  1 Multiplicity = 1
 N                     0.        0.       -0.70716 
 C                     0.        0.        0.79612 
 H                     0.        0.93845  -1.07406 
 H                    -0.81272  -0.46922  -1.07406 
 H                     0.81272  -0.46922  -1.07406 
 H                    -0.88634   0.51173   1.13187 
 H                     0.88634   0.51173   1.13187 
 H                     0.       -1.02346   1.13187 
 
 ITRead=  0  0  0  0  0  0  0  0
 MicOpt= -1 -1 -1 -1 -1 -1 -1 -1
 NAtoms=      8 NQM=        8 NQMF=       0 NMMI=      0 NMMIF=      0
                NMic=       0 NMicF=      0.
                    Isotopes and Nuclear Properties:
 (Nuclear quadrupole moments (NQMom) in fm**2, nuclear magnetic moments (NMagM)
  in nuclear magnetons)

  Atom         1           2           3           4           5           6           7           8
 IAtWgt=          14          12           1           1           1           1           1           1
 AtmWgt=  14.0030740  12.0000000   1.0078250   1.0078250   1.0078250   1.0078250   1.0078250   1.0078250
 NucSpn=           2           0           1           1           1           1           1           1
 AtZEff=  -0.0000000  -0.0000000  -0.0000000  -0.0000000  -0.0000000  -0.0000000  -0.0000000  -0.0000000
 NQMom=    2.0440000   0.0000000   0.0000000   0.0000000   0.0000000   0.0000000   0.0000000   0.0000000
 NMagM=    0.4037610   0.0000000   2.7928460   2.7928460   2.7928460   2.7928460   2.7928460   2.7928460
 AtZNuc=   7.0000000   6.0000000   1.0000000   1.0000000   1.0000000   1.0000000   1.0000000   1.0000000
 Leave Link  101 at Tue Sep 30 16:58:50 2025, MaxMem=  4294967296 cpu:               5.1 elap:               0.3
 (Enter /software/sse/easybuild/prefix/software/Gaussian/16.C.01-avx2-nsc1/g16/l103.exe)

 GradGradGradGradGradGradGradGradGradGradGradGradGradGradGradGradGradGrad
 Berny optimization.
 Initialization pass.
                           ----------------------------
                           !    Initial Parameters    !
                           ! (Angstroms and Degrees)  !
 --------------------------                            --------------------------
 ! Name  Definition              Value          Derivative Info.                !
 --------------------------------------------------------------------------------
 ! R1    R(1,2)                  1.5033         estimate D2E/DX2                !
 ! R2    R(1,3)                  1.0076         estimate D2E/DX2                !
 ! R3    R(1,4)                  1.0076         estimate D2E/DX2                !
 ! R4    R(1,5)                  1.0076         estimate D2E/DX2                !
 ! R5    R(2,6)                  1.0771         estimate D2E/DX2                !
 ! R6    R(2,7)                  1.0771         estimate D2E/DX2                !
 ! R7    R(2,8)                  1.0771         estimate D2E/DX2                !
 ! A1    A(2,1,3)              111.3537         estimate D2E/DX2                !
 ! A2    A(2,1,4)              111.3538         estimate D2E/DX2                !
 ! A3    A(2,1,5)              111.3538         estimate D2E/DX2                !
 ! A4    A(3,1,4)              107.5247         estimate D2E/DX2                !
 ! A5    A(3,1,5)              107.5247         estimate D2E/DX2                !
 ! A6    A(4,1,5)              107.5252         estimate D2E/DX2                !
 ! A7    A(1,2,6)              108.1623         estimate D2E/DX2                !
 ! A8    A(1,2,7)              108.1623         estimate D2E/DX2                !
 ! A9    A(1,2,8)              108.1623         estimate D2E/DX2                !
 ! A10   A(6,2,7)              110.7477         estimate D2E/DX2                !
 ! A11   A(6,2,8)              110.7479         estimate D2E/DX2                !
 ! A12   A(7,2,8)              110.7479         estimate D2E/DX2                !
 ! D1    D(3,1,2,6)             59.9999         estimate D2E/DX2                !
 ! D2    D(3,1,2,7)            -59.9999         estimate D2E/DX2                !
 ! D3    D(3,1,2,8)            180.0            estimate D2E/DX2                !
 ! D4    D(4,1,2,6)            -59.9998         estimate D2E/DX2                !
 ! D5    D(4,1,2,7)           -179.9997         estimate D2E/DX2                !
 ! D6    D(4,1,2,8)             60.0002         estimate D2E/DX2                !
 ! D7    D(5,1,2,6)            179.9997         estimate D2E/DX2                !
 ! D8    D(5,1,2,7)             59.9998         estimate D2E/DX2                !
 ! D9    D(5,1,2,8)            -60.0002         estimate D2E/DX2                !
 --------------------------------------------------------------------------------
 Trust Radius=3.00D-01 FncErr=1.00D-07 GrdErr=1.00D-07 EigMax=2.50D+02 EigMin=1.00D-04
 Number of steps in this run=     38 maximum allowed number of steps=    100.
 GradGradGradGradGradGradGradGradGradGradGradGradGradGradGradGradGradGrad

 Leave Link  103 at Tue Sep 30 16:58:50 2025, MaxMem=  4294967296 cpu:               0.2 elap:               0.0
 (Enter /software/sse/easybuild/prefix/software/Gaussian/16.C.01-avx2-nsc1/g16/l202.exe)
                          Input orientation:                          
 ---------------------------------------------------------------------
 Center     Atomic      Atomic             Coordinates (Angstroms)
 Number     Number       Type             X           Y           Z
 ---------------------------------------------------------------------
      1          7           0        0.000000    0.000000   -0.707160
      2          6           0        0.000000    0.000000    0.796120
      3          1           0        0.000000    0.938450   -1.074060
      4          1           0       -0.812720   -0.469220   -1.074060
      5          1           0        0.812720   -0.469220   -1.074060
      6          1           0       -0.886340    0.511730    1.131870
      7          1           0        0.886340    0.511730    1.131870
      8          1           0        0.000000   -1.023460    1.131870
 ---------------------------------------------------------------------
                    Distance matrix (angstroms):
                    1          2          3          4          5
     1  N    0.000000
     2  C    1.503280   0.000000
     3  H    1.007623   2.092430   0.000000
     4  H    1.007619   2.092428   1.625438   0.000000
     5  H    1.007619   2.092428   1.625438   1.625440   0.000000
     6  H    2.104637   1.077123   2.415329   2.415328   2.952151
     7  H    2.104637   1.077123   2.415329   2.952151   2.415328
     8  H    2.104638   1.077125   2.952155   2.415331   2.415331
                    6          7          8
     6  H    0.000000
     7  H    1.772680   0.000000
     8  H    1.772684   1.772684   0.000000
 This structure is nearly, but not quite of a higher symmetry.
 Consider Symm=Loose if the higher symmetry is desired.
 Stoichiometry    CH6N(1+)
 Framework group  CS[SG(CH2N),X(H4)]
 Deg. of freedom    11
 Full point group                 CS      NOp   2
 Largest Abelian subgroup         CS      NOp   2
 Largest concise Abelian subgroup CS      NOp   2
                         Standard orientation:                         
 ---------------------------------------------------------------------
 Center     Atomic      Atomic             Coordinates (Angstroms)
 Number     Number       Type             X           Y           Z
 ---------------------------------------------------------------------
      1          7           0       -0.000001    0.707162    0.000000
      2          6           0       -0.000001   -0.796118   -0.000000
      3          1           0        0.938449    1.074062    0.000000
      4          1           0       -0.469221    1.074062    0.812720
      5          1           0       -0.469221    1.074062   -0.812720
      6          1           0        0.511729   -1.131868    0.886340
      7          1           0        0.511729   -1.131868   -0.886340
      8          1           0       -1.023461   -1.131868   -0.000000
 ---------------------------------------------------------------------
 Rotational constants (GHZ):          86.6901426          20.3097674          20.3097641
 Leave Link  202 at Tue Sep 30 16:58:50 2025, MaxMem=  4294967296 cpu:               0.1 elap:               0.0
 (Enter /software/sse/easybuild/prefix/software/Gaussian/16.C.01-avx2-nsc1/g16/l301.exe)
 Standard basis: Aug-CC-pVTZ (5D, 7F)
 Ernie: Thresh=  0.10000D-02 Tol=  0.10000D-05 Strict=F.
 Ernie:  6 primitive shells out of 126 were deleted.
 There are   160 symmetry adapted cartesian basis functions of A'  symmetry.
 There are   100 symmetry adapted cartesian basis functions of A"  symmetry.
 There are   138 symmetry adapted basis functions of A'  symmetry.
 There are    92 symmetry adapted basis functions of A"  symmetry.
   230 basis functions,   306 primitive gaussians,   260 cartesian basis functions
     9 alpha electrons        9 beta electrons
       nuclear repulsion energy        48.2133429556 Hartrees.
 IExCor=    0 DFT=F Ex=HF Corr=None ExCW=0 ScaHFX=  1.000000
 ScaDFX=  1.000000  1.000000  1.000000  1.000000 ScalE2=  1.000000  1.000000
 IRadAn=      5 IRanWt=     -1 IRanGd=            0 ICorTp=0 IEmpDi=  4
 NAtoms=    8 NActive=    8 NUniq=    6 SFac= 1.78D+00 NAtFMM=   60 NAOKFM=F Big=F
 Integral buffers will be    131072 words long.
 Raffenetti 1 integral format.
 Two-electron integral symmetry is turned on.
 Leave Link  301 at Tue Sep 30 16:58:51 2025, MaxMem=  4294967296 cpu:               0.9 elap:               0.1
 (Enter /software/sse/easybuild/prefix/software/Gaussian/16.C.01-avx2-nsc1/g16/l302.exe)
 NPDir=0 NMtPBC=     1 NCelOv=     1 NCel=       1 NClECP=     1 NCelD=      1
         NCelK=      1 NCelE2=     1 NClLst=     1 CellRange=     0.0.
 One-electron integrals computed using PRISM.
 One-electron integral symmetry used in STVInt
 NBasis=   230 RedAO= T EigKep=  3.10D-05  NBF=   138    92
 NBsUse=   230 1.00D-06 EigRej= -1.00D+00 NBFU=   138    92
 Leave Link  302 at Tue Sep 30 16:58:51 2025, MaxMem=  4294967296 cpu:               2.1 elap:               0.2
 (Enter /software/sse/easybuild/prefix/software/Gaussian/16.C.01-avx2-nsc1/g16/l303.exe)
 DipDrv:  MaxL=1.
 Leave Link  303 at Tue Sep 30 16:58:52 2025, MaxMem=  4294967296 cpu:               0.4 elap:               0.0
 (Enter /software/sse/easybuild/prefix/software/Gaussian/16.C.01-avx2-nsc1/g16/l401.exe)
 ExpMin= 2.53D-02 ExpMax= 1.14D+04 ExpMxC= 3.89D+02 IAcc=3 IRadAn=         5 AccDes= 0.00D+00
 Harris functional with IExCor=  205 and IRadAn=       5 diagonalized for initial guess.
 HarFok:  IExCor=  205 AccDes= 0.00D+00 IRadAn=         5 IDoV= 1 UseB2=F ITyADJ=14
 ICtDFT=  3500011 ScaDFX=  1.000000  1.000000  1.000000  1.000000
 FoFCou: FMM=F IPFlag=           0 FMFlag=      100000 FMFlg1=           0
         NFxFlg=           0 DoJE=T BraDBF=F KetDBF=T FulRan=T
         wScrn=  0.000000 ICntrl=       500 IOpCl=  0 I1Cent=   200000004 NGrid=           0
         NMat0=    1 NMatS0=      1 NMatT0=    0 NMatD0=    1 NMtDS0=    0 NMtDT0=    0
 Petite list used in FoFCou.
 Harris En= -95.8748133245802    
 JPrj=0 DoOrth=F DoCkMO=F.
 Initial guess orbital symmetries:
       Occupied  (A') (A') (A') (A') (A") (A') (A') (A") (A')
       Virtual   (A') (A') (A") (A') (A') (A') (A") (A') (A") (A')
                 (A') (A') (A") (A') (A') (A") (A") (A') (A') (A')
                 (A") (A') (A") (A') (A') (A") (A') (A') (A") (A')
                 (A') (A") (A") (A') (A') (A') (A") (A') (A") (A")
                 (A') (A') (A") (A') (A") (A') (A') (A") (A') (A')
                 (A') (A") (A') (A") (A') (A') (A") (A") (A') (A')
                 (A") (A') (A') (A") (A') (A") (A') (A') (A") (A")
                 (A') (A") (A') (A") (A') (A") (A') (A') (A") (A')
                 (A') (A") (A") (A') (A') (A") (A') (A') (A') (A")
                 (A") (A') (A') (A") (A") (A') (A') (A') (A") (A')
                 (A") (A") (A') (A') (A") (A") (A') (A') (A') (A")
                 (A') (A') (A") (A') (A') (A") (A") (A") (A') (A')
                 (A") (A') (A") (A') (A') (A") (A') (A') (A") (A')
                 (A') (A") (A') (A") (A') (A') (A") (A') (A') (A")
                 (A') (A") (A") (A') (A') (A") (A') (A') (A') (A")
                 (A") (A') (A') (A') (A") (A") (A') (A") (A") (A')
                 (A") (A') (A") (A') (A") (A') (A") (A') (A') (A")
                 (A') (A') (A') (A") (A") (A') (A') (A") (A') (A')
                 (A') (A") (A') (A") (A") (A') (A') (A") (A') (A')
                 (A") (A") (A') (A') (A") (A') (A") (A') (A') (A")
                 (A") (A') (A") (A') (A') (A') (A") (A") (A') (A')
                 (A") (A') (A") (A') (A') (A') (A") (A') (A") (A')
                 (A')
 The electronic state of the initial guess is 1-A'.
 Leave Link  401 at Tue Sep 30 16:58:53 2025, MaxMem=  4294967296 cpu:               3.6 elap:               0.2
 (Enter /software/sse/easybuild/prefix/software/Gaussian/16.C.01-avx2-nsc1/g16/l502.exe)
 Keep R1 ints in memory in symmetry-blocked form, NReq=529702683.
 FoFCou: FMM=F IPFlag=           0 FMFlag=           0 FMFlg1=           0
         NFxFlg=           0 DoJE=F BraDBF=F KetDBF=F FulRan=T
         wScrn=  0.000000 ICntrl=       600 IOpCl=  0 I1Cent=           0 NGrid=           0
         NMat0=    1 NMatS0=  26565 NMatT0=    0 NMatD0=    1 NMtDS0=    0 NMtDT0=    0
 Petite list used in FoFCou.
 Closed shell SCF:
 Using DIIS extrapolation, IDIIS=  1040.
 NGot=  4294967296 LenX=  4117987251 LenY=  4117919210
 Requested convergence on RMS density matrix=1.00D-08 within 128 cycles.
 Requested convergence on MAX density matrix=1.00D-06.
 Requested convergence on             energy=1.00D-06.
 No special actions if energy rises.

 Cycle   1  Pass 1  IDiag  1:
 E= -95.5217827002719    
 DIIS: error= 4.04D-02 at cycle   1 NSaved=   1.
 NSaved= 1 IEnMin= 1 EnMin= -95.5217827002719     IErMin= 1 ErrMin= 4.04D-02
 ErrMax= 4.04D-02  0.00D+00 EMaxC= 1.00D-01 BMatC= 2.11D-01 BMatP= 2.11D-01
 IDIUse=3 WtCom= 5.96D-01 WtEn= 4.04D-01
 Coeff-Com:  0.100D+01
 Coeff-En:   0.100D+01
 Coeff:      0.100D+01
 Gap=     0.625 Goal=   None    Shift=    0.000
 GapD=    0.625 DampG=2.000 DampE=0.500 DampFc=1.0000 IDamp=-1.
 RMSDP=1.36D-03 MaxDP=6.53D-02              OVMax= 9.28D-02

 Cycle   2  Pass 1  IDiag  1:
 E= -95.6085186140207     Delta-E=       -0.086735913749 Rises=F Damp=F
 DIIS: error= 1.09D-02 at cycle   2 NSaved=   2.
 NSaved= 2 IEnMin= 2 EnMin= -95.6085186140207     IErMin= 2 ErrMin= 1.09D-02
 ErrMax= 1.09D-02  0.00D+00 EMaxC= 1.00D-01 BMatC= 1.30D-02 BMatP= 2.11D-01
 IDIUse=3 WtCom= 8.91D-01 WtEn= 1.09D-01
 Coeff-Com:  0.100D+00 0.900D+00
 Coeff-En:   0.000D+00 0.100D+01
 Coeff:      0.891D-01 0.911D+00
 Gap=     0.677 Goal=   None    Shift=    0.000
 RMSDP=4.22D-04 MaxDP=1.92D-02 DE=-8.67D-02 OVMax= 3.19D-02

 Cycle   3  Pass 1  IDiag  1:
 E= -95.6181912431568     Delta-E=       -0.009672629136 Rises=F Damp=F
 DIIS: error= 2.78D-03 at cycle   3 NSaved=   3.
 NSaved= 3 IEnMin= 3 EnMin= -95.6181912431568     IErMin= 3 ErrMin= 2.78D-03
 ErrMax= 2.78D-03  0.00D+00 EMaxC= 1.00D-01 BMatC= 1.13D-03 BMatP= 1.30D-02
 IDIUse=3 WtCom= 9.72D-01 WtEn= 2.78D-02
 Coeff-Com: -0.233D-01 0.184D+00 0.840D+00
 Coeff-En:   0.000D+00 0.000D+00 0.100D+01
 Coeff:     -0.226D-01 0.178D+00 0.844D+00
 Gap=     0.659 Goal=   None    Shift=    0.000
 RMSDP=8.97D-05 MaxDP=4.48D-03 DE=-9.67D-03 OVMax= 7.80D-03

 Cycle   4  Pass 1  IDiag  1:
 E= -95.6191983452175     Delta-E=       -0.001007102061 Rises=F Damp=F
 DIIS: error= 6.48D-04 at cycle   4 NSaved=   4.
 NSaved= 4 IEnMin= 4 EnMin= -95.6191983452175     IErMin= 4 ErrMin= 6.48D-04
 ErrMax= 6.48D-04  0.00D+00 EMaxC= 1.00D-01 BMatC= 2.40D-05 BMatP= 1.13D-03
 IDIUse=3 WtCom= 9.94D-01 WtEn= 6.48D-03
 Coeff-Com: -0.130D-02-0.177D-01 0.343D-03 0.102D+01
 Coeff-En:   0.000D+00 0.000D+00 0.000D+00 0.100D+01
 Coeff:     -0.130D-02-0.176D-01 0.341D-03 0.102D+01
 Gap=     0.659 Goal=   None    Shift=    0.000
 RMSDP=2.40D-05 MaxDP=1.25D-03 DE=-1.01D-03 OVMax= 3.25D-03

 Cycle   5  Pass 1  IDiag  1:
 E= -95.6192370622312     Delta-E=       -0.000038717014 Rises=F Damp=F
 DIIS: error= 1.81D-04 at cycle   5 NSaved=   5.
 NSaved= 5 IEnMin= 5 EnMin= -95.6192370622312     IErMin= 5 ErrMin= 1.81D-04
 ErrMax= 1.81D-04  0.00D+00 EMaxC= 1.00D-01 BMatC= 3.90D-06 BMatP= 2.40D-05
 IDIUse=3 WtCom= 9.98D-01 WtEn= 1.81D-03
 Coeff-Com:  0.213D-02-0.226D-01-0.889D-01 0.131D+00 0.978D+00
 Coeff-En:   0.000D+00 0.000D+00 0.000D+00 0.000D+00 0.100D+01
 Coeff:      0.213D-02-0.225D-01-0.887D-01 0.131D+00 0.978D+00
 Gap=     0.660 Goal=   None    Shift=    0.000
 RMSDP=9.33D-06 MaxDP=3.77D-04 DE=-3.87D-05 OVMax= 8.10D-04

 Cycle   6  Pass 1  IDiag  1:
 E= -95.6192431727382     Delta-E=       -0.000006110507 Rises=F Damp=F
 DIIS: error= 7.23D-05 at cycle   6 NSaved=   6.
 NSaved= 6 IEnMin= 6 EnMin= -95.6192431727382     IErMin= 6 ErrMin= 7.23D-05
 ErrMax= 7.23D-05  0.00D+00 EMaxC= 1.00D-01 BMatC= 1.89D-07 BMatP= 3.90D-06
 IDIUse=1 WtCom= 1.00D+00 WtEn= 0.00D+00
 Coeff-Com:  0.369D-03-0.130D-02-0.910D-02-0.665D-01 0.612D-01 0.102D+01
 Coeff:      0.369D-03-0.130D-02-0.910D-02-0.665D-01 0.612D-01 0.102D+01
 Gap=     0.660 Goal=   None    Shift=    0.000
 RMSDP=2.23D-06 MaxDP=1.15D-04 DE=-6.11D-06 OVMax= 3.57D-04

 Cycle   7  Pass 1  IDiag  1:
 E= -95.6192435267807     Delta-E=       -0.000000354042 Rises=F Damp=F
 DIIS: error= 9.76D-06 at cycle   7 NSaved=   7.
 NSaved= 7 IEnMin= 7 EnMin= -95.6192435267807     IErMin= 7 ErrMin= 9.76D-06
 ErrMax= 9.76D-06  0.00D+00 EMaxC= 1.00D-01 BMatC= 7.30D-09 BMatP= 1.89D-07
 IDIUse=1 WtCom= 1.00D+00 WtEn= 0.00D+00
 Coeff-Com: -0.163D-03 0.130D-02 0.606D-02 0.101D-01-0.580D-01-0.230D+00
 Coeff-Com:  0.127D+01
 Coeff:     -0.163D-03 0.130D-02 0.606D-02 0.101D-01-0.580D-01-0.230D+00
 Coeff:      0.127D+01
 Gap=     0.660 Goal=   None    Shift=    0.000
 RMSDP=5.37D-07 MaxDP=2.30D-05 DE=-3.54D-07 OVMax= 6.39D-05

 Cycle   8  Pass 1  IDiag  1:
 E= -95.6192435436280     Delta-E=       -0.000000016847 Rises=F Damp=F
 DIIS: error= 1.64D-06 at cycle   8 NSaved=   8.
 NSaved= 8 IEnMin= 8 EnMin= -95.6192435436280     IErMin= 8 ErrMin= 1.64D-06
 ErrMax= 1.64D-06  0.00D+00 EMaxC= 1.00D-01 BMatC= 2.26D-10 BMatP= 7.30D-09
 IDIUse=1 WtCom= 1.00D+00 WtEn= 0.00D+00
 Coeff-Com:  0.180D-04-0.178D-03-0.989D-03-0.628D-03 0.977D-02 0.264D-01
 Coeff-Com: -0.309D+00 0.127D+01
 Coeff:      0.180D-04-0.178D-03-0.989D-03-0.628D-03 0.977D-02 0.264D-01
 Coeff:     -0.309D+00 0.127D+01
 Gap=     0.660 Goal=   None    Shift=    0.000
 RMSDP=1.15D-07 MaxDP=3.55D-06 DE=-1.68D-08 OVMax= 1.27D-05

 Cycle   9  Pass 1  IDiag  1:
 E= -95.6192435441669     Delta-E=       -0.000000000539 Rises=F Damp=F
 DIIS: error= 2.31D-07 at cycle   9 NSaved=   9.
 NSaved= 9 IEnMin= 9 EnMin= -95.6192435441669     IErMin= 9 ErrMin= 2.31D-07
 ErrMax= 2.31D-07  0.00D+00 EMaxC= 1.00D-01 BMatC= 3.53D-12 BMatP= 2.26D-10
 IDIUse=1 WtCom= 1.00D+00 WtEn= 0.00D+00
 Coeff-Com: -0.919D-06 0.172D-04 0.982D-04-0.179D-03-0.100D-02 0.152D-02
 Coeff-Com:  0.325D-01-0.264D+00 0.123D+01
 Coeff:     -0.919D-06 0.172D-04 0.982D-04-0.179D-03-0.100D-02 0.152D-02
 Coeff:      0.325D-01-0.264D+00 0.123D+01
 Gap=     0.660 Goal=   None    Shift=    0.000
 RMSDP=1.71D-08 MaxDP=6.56D-07 DE=-5.39D-10 OVMax= 1.50D-06

 Cycle  10  Pass 1  IDiag  1:
 E= -95.6192435441744     Delta-E=       -0.000000000008 Rises=F Damp=F
 DIIS: error= 1.53D-08 at cycle  10 NSaved=  10.
 NSaved=10 IEnMin=10 EnMin= -95.6192435441744     IErMin=10 ErrMin= 1.53D-08
 ErrMax= 1.53D-08  0.00D+00 EMaxC= 1.00D-01 BMatC= 2.00D-14 BMatP= 3.53D-12
 IDIUse=1 WtCom= 1.00D+00 WtEn= 0.00D+00
 Coeff-Com: -0.932D-07 0.248D-06-0.991D-07 0.205D-04 0.441D-05-0.447D-03
 Coeff-Com: -0.482D-03 0.167D-01-0.144D+00 0.113D+01
 Coeff:     -0.932D-07 0.248D-06-0.991D-07 0.205D-04 0.441D-05-0.447D-03
 Coeff:     -0.482D-03 0.167D-01-0.144D+00 0.113D+01
 Gap=     0.660 Goal=   None    Shift=    0.000
 RMSDP=1.01D-09 MaxDP=4.34D-08 DE=-7.50D-12 OVMax= 9.91D-08

 SCF Done:  E(RHF) =  -95.6192435442     A.U. after   10 cycles
            NFock= 10  Conv=0.10D-08     -V/T= 2.0005
 KE= 9.557534064911D+01 PE=-3.141437035755D+02 EE= 7.473577642668D+01
 Leave Link  502 at Tue Sep 30 16:58:57 2025, MaxMem=  4294967296 cpu:              41.4 elap:               3.7
 (Enter /software/sse/easybuild/prefix/software/Gaussian/16.C.01-avx2-nsc1/g16/l601.exe)
 Copying SCF densities to generalized density rwf, IOpCl= 0 IROHF=0.
 SCF density gives NOpUse=  2 NOpAll=  2.

 **********************************************************************

            Population analysis using the SCF Density.

 **********************************************************************

 Orbital symmetries:
 BldTbl:  Degeneracy threshold= 1.00D-02
       Occupied  (A') (A') (A') (A') (A") (A') (A') (A") (A')
       Virtual   (A') (A") (A') (A') (A') (A") (A') (A') (A") (A')
                 (A") (A') (A') (A') (A") (A') (A') (A") (A') (A")
                 (A') (A') (A") (A') (A') (A") (A") (A') (A') (A')
                 (A") (A') (A") (A') (A") (A') (A") (A') (A') (A")
                 (A') (A') (A") (A') (A") (A') (A") (A') (A') (A')
                 (A') (A") (A') (A") (A') (A') (A") (A") (A') (A')
                 (A") (A") (A') (A') (A") (A') (A') (A") (A') (A")
                 (A') (A") (A') (A") (A') (A') (A") (A') (A') (A")
                 (A") (A') (A') (A") (A') (A") (A') (A") (A') (A')
                 (A") (A') (A') (A") (A') (A") (A') (A') (A") (A")
                 (A') (A") (A') (A') (A") (A') (A") (A') (A") (A')
                 (A') (A') (A') (A") (A') (A") (A") (A') (A") (A')
                 (A") (A') (A") (A') (A') (A") (A') (A') (A') (A")
                 (A") (A') (A') (A") (A') (A') (A") (A') (A') (A')
                 (A") (A") (A") (A') (A') (A") (A') (A') (A') (A")
                 (A") (A') (A') (A') (A") (A") (A') (A") (A") (A')
                 (A") (A') (A') (A") (A") (A') (A") (A') (A') (A")
                 (A') (A') (A') (A") (A") (A') (A") (A') (A') (A')
                 (A') (A") (A") (A') (A") (A') (A") (A') (A') (A')
                 (A") (A") (A') (A') (A") (A') (A") (A') (A") (A')
                 (A") (A') (A') (A") (A') (A") (A') (A") (A') (A")
                 (A') (A') (A") (A') (A') (A') (A") (A') (A") (A')
                 (A')
 The electronic state is 1-A'.
 Alpha  occ. eigenvalues --  -15.90932 -11.48948  -1.53544  -1.18214  -0.99449
 Alpha  occ. eigenvalues --   -0.99449  -0.86859  -0.78723  -0.78723
 Alpha virt. eigenvalues --   -0.12730  -0.08643  -0.08643  -0.08431  -0.04758
 Alpha virt. eigenvalues --   -0.04758  -0.04349  -0.01877  -0.01877  -0.01552
 Alpha virt. eigenvalues --    0.00567   0.00567   0.00752   0.04098   0.04098
 Alpha virt. eigenvalues --    0.04427   0.07566   0.07566   0.09194   0.10848
 Alpha virt. eigenvalues --    0.10848   0.15508   0.15528   0.15872   0.16910
 Alpha virt. eigenvalues --    0.16910   0.20546   0.20546   0.20799   0.23285
 Alpha virt. eigenvalues --    0.23285   0.23909   0.24417   0.25100   0.25100
 Alpha virt. eigenvalues --    0.25456   0.27145   0.27145   0.29839   0.32397
 Alpha virt. eigenvalues --    0.32397   0.33115   0.34210   0.34210   0.39801
 Alpha virt. eigenvalues --    0.39801   0.40871   0.40871   0.42079   0.56609
 Alpha virt. eigenvalues --    0.58809   0.58809   0.59908   0.61906   0.61906
 Alpha virt. eigenvalues --    0.64045   0.65095   0.68160   0.68160   0.71976
 Alpha virt. eigenvalues --    0.72877   0.73039   0.73039   0.73632   0.74515
 Alpha virt. eigenvalues --    0.74515   0.78547   0.78547   0.80801   0.81504
 Alpha virt. eigenvalues --    0.88454   0.88454   0.88771   0.88771   0.89404
 Alpha virt. eigenvalues --    0.95308   0.95308   0.95849   0.98006   0.98006
 Alpha virt. eigenvalues --    1.01722   1.01722   1.05429   1.05429   1.06589
 Alpha virt. eigenvalues --    1.09105   1.09106   1.12226   1.12741   1.14311
 Alpha virt. eigenvalues --    1.14311   1.27293   1.27764   1.27764   1.35349
 Alpha virt. eigenvalues --    1.35349   1.35791   1.40519   1.40519   1.43162
 Alpha virt. eigenvalues --    1.43628   1.45702   1.45703   1.50755   1.51267
 Alpha virt. eigenvalues --    1.57411   1.58625   1.58625   1.63518   1.63518
 Alpha virt. eigenvalues --    1.71296   1.78472   1.79027   1.79027   1.79340
 Alpha virt. eigenvalues --    1.79340   1.83210   1.86131   1.86131   1.92895
 Alpha virt. eigenvalues --    1.99823   1.99823   2.01402   2.01402   2.10651
 Alpha virt. eigenvalues --    2.19099   2.19099   2.21944   2.27126   2.27126
 Alpha virt. eigenvalues --    2.33829   2.35016   2.41829   2.41829   2.73158
 Alpha virt. eigenvalues --    2.96587   3.12777   3.12777   3.20879   3.36021
 Alpha virt. eigenvalues --    3.36021   3.40247   3.40402   3.40402   3.51432
 Alpha virt. eigenvalues --    3.51432   3.53261   3.61683   3.69708   3.69708
 Alpha virt. eigenvalues --    3.76158   3.76158   3.83341   3.84775   3.84775
 Alpha virt. eigenvalues --    3.85682   3.90339   3.90340   3.91188   3.98236
 Alpha virt. eigenvalues --    3.98236   4.08788   4.09942   4.09942   4.17012
 Alpha virt. eigenvalues --    4.21058   4.21059   4.30091   4.30725   4.33104
 Alpha virt. eigenvalues --    4.33104   4.41024   4.42952   4.42952   4.50156
 Alpha virt. eigenvalues --    4.50156   4.57542   4.57542   4.62895   4.66587
 Alpha virt. eigenvalues --    4.69493   4.69493   4.72667   4.78544   4.78544
 Alpha virt. eigenvalues --    4.84499   4.84500   4.86316   4.97089   4.98542
 Alpha virt. eigenvalues --    4.98542   5.03465   5.21961   5.25786   5.25786
 Alpha virt. eigenvalues --    5.31136   5.53162   5.53163   5.58318   5.58318
 Alpha virt. eigenvalues --    5.59713   5.65496   5.82089   5.82089   5.89221
 Alpha virt. eigenvalues --    5.89222   5.94886   6.17943   6.24627   6.24628
 Alpha virt. eigenvalues --    6.30052   6.47140   6.47140   6.52597   6.64765
 Alpha virt. eigenvalues --    6.91822   6.91822   7.55527   7.55527  17.69754
 Alpha virt. eigenvalues --   19.12383
          Condensed to atoms (all electrons):
               1          2          3          4          5          6
     1  N    5.467253   0.159174   0.409722   0.409724   0.409724   0.001961
     2  C    0.159174   5.577951  -0.012195  -0.012195  -0.012195   0.360951
     3  H    0.409722  -0.012195   0.492641  -0.024316  -0.024316   0.003210
     4  H    0.409724  -0.012195  -0.024316   0.492644  -0.024317   0.003210
     5  H    0.409724  -0.012195  -0.024316  -0.024317   0.492644  -0.005376
     6  H    0.001961   0.360951   0.003210   0.003210  -0.005376   0.220626
     7  H    0.001961   0.360951   0.003210  -0.005376   0.003210   0.012273
     8  H    0.001960   0.360951  -0.005376   0.003210   0.003210   0.012272
               7          8
     1  N    0.001961   0.001960
     2  C    0.360951   0.360951
     3  H    0.003210  -0.005376
     4  H   -0.005376   0.003210
     5  H    0.003210   0.003210
     6  H    0.012273   0.012272
     7  H    0.220626   0.012272
     8  H    0.012272   0.220627
 Mulliken charges:
               1
     1  N    0.138521
     2  C   -0.783394
     3  H    0.157420
     4  H    0.157416
     5  H    0.157416
     6  H    0.390874
     7  H    0.390874
     8  H    0.390874
 Sum of Mulliken charges =   1.00000
 Mulliken charges with hydrogens summed into heavy atoms:
               1
     1  N    0.610773
     2  C    0.389227
 DipInt: DoE/N= T F RetVal/Mat= T F Init=T NMatP=  1 IDeriv=0 Min/MaxMlt=  0  4
 Entering OneElI...
 OneElI was handed  4294792201 working-precision words.
 Multipole integrals L=0 to 4 MinM= 0 MaxM= 0.
 Requested accuracy = 0.1000D-12
 ShPair: Thresh= 1.00D-13 NBox=     0 BxSize= 0.00D+00 RnKept= 5.58D+00
         NSMCal=                 3403 NSMKep=                3403
 PrmmSu-InSpLW:  IPartL=    0 NPrtUS=    1 NPrtUL=    1 DoSpLW=F IThBeg=    0 IThEnd=    0 NThAct=    1.
 PrSmSu:  IncTry=   512 NBBP=           3403 NTPThr=   100 NPartT=    1 Incr=          34 LDynOK=F GPUOK=F.
 PrsmSu:  NPrtUS=   1 ThrOK=F IAlg=2 LenDen=           0 ISkipM=0 DoSpLW=F IThBeg=    0 IThEnd=    0.
 Prism:   IPart=     0 DynPar=F LinDyn=F Incr=          34.
 PRISM was handed  4294575181 working-precision words and  3403 shell-pairs
 IPart=  0 NShTot=        3403 NBatch=          54 AvBLen=        63.0
 PrsmSu-ThDecC:  IPartSL=    0    0 NPrtUSL=    1    1 IThBeg=    0 IThEnd=    0 CPU=   -1 GPU=   -1 NThAct=    1.
 PrSmSu:  NxtVal=             35.
 Electronic moments (au):
        -18.00000000          0.00000458          0.84292150         -0.00000000
        -17.87640185        -57.26428346        -17.87638541         -0.00002795
          0.00000000         -0.00000000          1.83080358         15.90199178
          0.00000000          0.00000227          6.06854682          0.00000000
         -1.83079925          6.06849198          0.00000000         -0.00000000
        -72.61166675       -327.70948658        -72.61141860        -12.85899272
         -0.00000000         -0.00019524          0.00000000         -0.00000000
         -0.00000000        -73.20299337        -24.20381261        -73.20290419
          0.00000000          0.00000000         12.85871506
 Electronic spatial extent (au):  <R**2>=             93.0171
 DipInt: DoE/N= F T RetVal/Mat= T F Init=T NMatP=  1 IDeriv=0 Min/MaxMlt=  0  4
 Nuclear    moments (au):
         19.00000000          0.00000000         -0.00000000          0.00000000
         10.32833645         52.16458987         10.32832221          0.00003836
         -0.00000000         -0.00000000         -1.24283711         -7.99752741
          0.00000000          0.00002597         -2.42628045          0.00000000
          1.24287213         -2.42618482          0.00000000          0.00000000
         26.86829245        166.76551859         26.86808822         20.09586372
         -0.00000000          0.00016596         -0.00000000         -0.00000000
         -0.00000000         45.10376772          8.95598989         45.10369544
         -0.00000000         -0.00000000        -20.09557915
 Total      moments (au):
          1.00000000          0.00000458          0.84292150         -0.00000000
         -7.54806540         -5.09969359         -7.54806320          0.00001040
          0.00000000         -0.00000000          0.58796647          7.90446437
          0.00000000          0.00002824          3.64226636          0.00000000
         -0.58792712          3.64230716          0.00000000         -0.00000000
        -45.74337430       -160.94396799        -45.74333037          7.23687100
         -0.00000000         -0.00002928          0.00000000         -0.00000000
         -0.00000000        -28.09922565        -15.24782273        -28.09920875
          0.00000000          0.00000000         -7.23686409
 Traceless Quadrup. (au):
         -0.81612467          1.63224714         -0.81612247          0.00001040
          0.00000000         -0.00000000
 Charge=              1.0000 electrons
 Dipole moment (field-independent basis, Debye):
    X=              0.0000    Y=              2.1425    Z=             -0.0000  Tot=              2.1425
 Quadrupole moment (field-independent basis, Debye-Ang):
   XX=            -10.1524   YY=             -6.8593   ZZ=            -10.1524
   XY=              0.0000   XZ=              0.0000   YZ=             -0.0000
 Traceless Quadrupole moment (field-independent basis, Debye-Ang):
   XX=             -1.0977   YY=              2.1954   ZZ=             -1.0977
   XY=              0.0000   XZ=              0.0000   YZ=             -0.0000
 Octapole moment (field-independent basis, Debye-Ang**2):
  XXX=              0.4185  YYY=              5.6261  ZZZ=              0.0000  XYY=              0.0000
  XXY=              2.5924  XXZ=              0.0000  XZZ=             -0.4185  YZZ=              2.5925
  YYZ=              0.0000  XYZ=             -0.0000
 Hexadecapole moment (field-independent basis, Debye-Ang**3):
 XXXX=            -17.2291 YYYY=            -60.6192 ZZZZ=            -17.2291 XXXY=              2.7258
 XXXZ=             -0.0000 YYYX=             -0.0000 YYYZ=              0.0000 ZZZX=             -0.0000
 ZZZY=             -0.0000 XXYY=            -10.5835 XXZZ=             -5.7431 YYZZ=            -10.5835
 XXYZ=              0.0000 YYXZ=              0.0000 ZZXY=             -2.7258
 N-N= 4.821334295557D+01 E-N=-3.141437037974D+02  KE= 9.557534064911D+01
 Symmetry A'   KE= 9.064923120211D+01
 Symmetry A"   KE= 4.926109447000D+00
 SetAtRh:  ITypeU=  23 NETotI=      -1 ICharg=  0 NETot=      19.
 StAtR1:  I=    1 I1=    1 IA=  7 C=   7.0 OKShel=TTT
                                                  SSP
                                                  223
 StAtR1:  I=    2 I1=    2 IA=  6 C=   6.0 OKShel=TTT
                                                  SSP
                                                  222
 StAtR1:  I=    3 I1=    3 IA=  1 C=   1.0 OKShel=T
                                                  S
                                                  1
 StAtR1:  I=    4 I1=    4 IA=  1 C=   1.0 OKShel=T
                                                  S
                                                  1
 StAtR1:  I=    5 I1=    5 IA=  1 C=   1.0 OKShel=T
                                                  S
                                                  1
 StAtR1:  I=    6 I1=    6 IA=  1 C=   1.0 OKShel=T
                                                  S
                                                  1
 StAtR1:  I=    7 I1=    7 IA=  1 C=   1.0 OKShel=T
                                                  S
                                                  1
 StAtR1:  I=    8 I1=    8 IA=  1 C=   1.0 OKShel=T
                                                  S
                                                  1
          I=    1 IA=  7 I1=    1 NAtG=22 NE=   7.000 C=   7.000 Err= 6.08D-13
          I=    2 IA=  6 I1=    2 NAtG=23 NE=   6.000 C=   6.000 Err= 1.75D-11
          I=    3 IA=  1 I1=    3 NAtG=20 NE=   1.000 C=   1.000 Err= 2.80D-12
          I=    4 IA=  1 I1=    4 NAtG=20 NE=   1.000 C=   1.000 Err= 2.80D-12
          I=    5 IA=  1 I1=    5 NAtG=20 NE=   1.000 C=   1.000 Err= 2.80D-12
          I=    6 IA=  1 I1=    6 NAtG=20 NE=   1.000 C=   1.000 Err= 2.80D-12
          I=    7 IA=  1 I1=    7 NAtG=20 NE=   1.000 C=   1.000 Err= 2.80D-12
          I=    8 IA=  1 I1=    8 NAtG=20 NE=   1.000 C=   1.000 Err= 2.80D-12
 Pruned (  99, 590) grid will be used in numerical quadrature.
 IPart=  0 IRanGd=          0 ScrnBf=T ScrnGd=T RCrit=4.00D+00 DoMicB=T.
 CutRad = 1000.00    CtRdIn =    0.00    XCrit =  15.00   ICut = 0
 Pruned (  99, 590) grid will be used in numerical quadrature.
 Pruned (  99, 590) grid will be used in numerical quadrature.
 IPart=  0 Atom number   1 atomic number  7 has       23416 grid points.
 Pruned (  99, 590) grid will be used in numerical quadrature.
 Pruned (  99, 590) grid will be used in numerical quadrature.
 IPart=  5 IRanGd=          0 ScrnBf=T ScrnGd=T RCrit=4.00D+00 DoMicB=T.
 IPart=  0 Atom   1 batch    1 overlaps    8 atoms,    82 shells and     8 DB shells.   NGrid=      2408
 Pruned (  99, 590) grid will be used in numerical quadrature.
 CutRad = 1000.00    CtRdIn =    0.00    XCrit =  15.00   ICut = 0
 IPart=  7 IRanGd=          0 ScrnBf=T ScrnGd=T RCrit=4.00D+00 DoMicB=T.
 Pruned (  99, 590) grid will be used in numerical quadrature.
 IPart=  1 IRanGd=          0 ScrnBf=T ScrnGd=T RCrit=4.00D+00 DoMicB=T.
 CutRad = 1000.00    CtRdIn =    0.00    XCrit =  15.00   ICut = 0
 IPart=  8 IRanGd=          0 ScrnBf=T ScrnGd=T RCrit=4.00D+00 DoMicB=T.
 CutRad = 1000.00    CtRdIn =    0.00    XCrit =  15.00   ICut = 0
 IPart=  2 IRanGd=          0 ScrnBf=T ScrnGd=T RCrit=4.00D+00 DoMicB=T.
 CutRad = 1000.00    CtRdIn =    0.00    XCrit =  15.00   ICut = 0
 Pruned (  99, 590) grid will be used in numerical quadrature.
 Pruned (  99, 590) grid will be used in numerical quadrature.
 Pruned (  99, 590) grid will be used in numerical quadrature.
 IPart=  6 IRanGd=          0 ScrnBf=T ScrnGd=T RCrit=4.00D+00 DoMicB=T.
 CutRad = 1000.00    CtRdIn =    0.00    XCrit =  15.00   ICut = 0
 Pruned (  99, 590) grid will be used in numerical quadrature.
 Pruned (  99, 590) grid will be used in numerical quadrature.
 Pruned (  99, 590) grid will be used in numerical quadrature.
 Pruned (  99, 590) grid will be used in numerical quadrature.
 Pruned (  99, 590) grid will be used in numerical quadrature.
 Symmetry reduced    86 angular points to    86 for atom    1.
 IPart= 14 IRanGd=          0 ScrnBf=T ScrnGd=T RCrit=4.00D+00 DoMicB=T.
 IPart= 11 IRanGd=          0 ScrnBf=T ScrnGd=T RCrit=4.00D+00 DoMicB=T.
 CutRad = 1000.00    CtRdIn =    0.00    XCrit =  15.00   ICut = 0
 Pruned (  99, 590) grid will be used in numerical quadrature.
 CutRad = 1000.00    CtRdIn =    0.00    XCrit =  15.00   ICut = 0
 IPart=  9 IRanGd=          0 ScrnBf=T ScrnGd=T RCrit=4.00D+00 DoMicB=T.
 IPart=  4 IRanGd=          0 ScrnBf=T ScrnGd=T RCrit=4.00D+00 DoMicB=T.
 IPart= 10 IRanGd=          0 ScrnBf=T ScrnGd=T RCrit=4.00D+00 DoMicB=T.
 CutRad = 1000.00    CtRdIn =    0.00    XCrit =  15.00   ICut = 0
 CutRad = 1000.00    CtRdIn =    0.00    XCrit =  15.00   ICut = 0
 CutRad = 1000.00    CtRdIn =    0.00    XCrit =  15.00   ICut = 0
 IPart= 13 IRanGd=          0 ScrnBf=T ScrnGd=T RCrit=4.00D+00 DoMicB=T.
 CutRad = 1000.00    CtRdIn =    0.00    XCrit =  15.00   ICut = 0
 Pruned (  99, 590) grid will be used in numerical quadrature.
 CutRad = 1000.00    CtRdIn =    0.00    XCrit =  15.00   ICut = 0
 IPart=  3 IRanGd=          0 ScrnBf=T ScrnGd=T RCrit=4.00D+00 DoMicB=T.
 Pruned (  99, 590) grid will be used in numerical quadrature.
 CutRad = 1000.00    CtRdIn =    0.00    XCrit =  15.00   ICut = 0
 IPart=  5 Atom number   1 atomic number  7 has       23416 grid points.
 IPart= 15 IRanGd=          0 ScrnBf=T ScrnGd=T RCrit=4.00D+00 DoMicB=T.
 IPart= 12 IRanGd=          0 ScrnBf=T ScrnGd=T RCrit=4.00D+00 DoMicB=T.
 IPart=  5 Atom   1 batch    2 overlaps    8 atoms,    82 shells and     8 DB shells.   NGrid=      2522
 CutRad = 1000.00    CtRdIn =    0.00    XCrit =  15.00   ICut = 0
 Pruned (  99, 590) grid will be used in numerical quadrature.
 CutRad = 1000.00    CtRdIn =    0.00    XCrit =  15.00   ICut = 0
 Symmetry reduced   194 angular points to   194 for atom    1.
 IPart=  7 Atom number   1 atomic number  7 has       23416 grid points.
 Pruned (  99, 590) grid will be used in numerical quadrature.
 IPart=  7 Atom   1 batch    4 overlaps    8 atoms,    82 shells and     8 DB shells.   NGrid=      1180
 IPart=  1 Atom number   1 atomic number  7 has       23416 grid points.
 Pruned (  99, 590) grid will be used in numerical quadrature.
 IPart=  1 Atom   1 batch    3 overlaps    8 atoms,    82 shells and     8 DB shells.   NGrid=      2114
 Pruned (  99, 590) grid will be used in numerical quadrature.
 Symmetry reduced   590 angular points to   590 for atom    1.
 IPart=  2 Atom number   1 atomic number  7 has       23416 grid points.
 IPart=  6 Atom number   1 atomic number  7 has       23416 grid points.
 IPart=  2 Atom   1 batch    5 overlaps    8 atoms,    82 shells and     8 DB shells.   NGrid=      1180
 Symmetry reduced   302 angular points to   302 for atom    1.
 IPart=  6 Atom   1 batch    6 overlaps    8 atoms,    82 shells and     8 DB shells.   NGrid=      1180
 Symmetry reduced   590 angular points to   590 for atom    1.
 Symmetry reduced   590 angular points to   590 for atom    1.
 Pruned (  99, 590) grid will be used in numerical quadrature.
 IPart=  8 Atom number   1 atomic number  7 has       23416 grid points.
 IPart=  8 Atom   1 batch    7 overlaps    8 atoms,    82 shells and     8 DB shells.   NGrid=      1180
 Pruned (  99, 590) grid will be used in numerical quadrature.
 Symmetry reduced   590 angular points to   590 for atom    1.
 IPart= 11 Atom number   1 atomic number  7 has       23416 grid points.
 IPart= 11 Atom   1 batch    8 overlaps    8 atoms,    82 shells and     8 DB shells.   NGrid=      1180
 Pruned (  99, 590) grid will be used in numerical quadrature.
 Symmetry reduced   590 angular points to   590 for atom    1.
 IPart=  4 Atom number   1 atomic number  7 has       23416 grid points.
 Pruned (  99, 590) grid will be used in numerical quadrature.
 IPart=  4 Atom   1 batch    9 overlaps    8 atoms,    82 shells and     8 DB shells.   NGrid=      1180
 IPart= 10 Atom number   1 atomic number  7 has       23416 grid points.
 Pruned (  99, 590) grid will be used in numerical quadrature.
 IPart= 10 Atom   1 batch   10 overlaps    8 atoms,    82 shells and     8 DB shells.   NGrid=      1180
 Pruned (  99, 590) grid will be used in numerical quadrature.
 Symmetry reduced   590 angular points to   590 for atom    1.
 IPart= 13 Atom number   1 atomic number  7 has       23416 grid points.
 Symmetry reduced   590 angular points to   590 for atom    1.
 IPart= 14 Atom number   1 atomic number  7 has       23416 grid points.
 Pruned (  99, 590) grid will be used in numerical quadrature.
 IPart= 14 Atom   1 batch   11 overlaps    8 atoms,    82 shells and     8 DB shells.   NGrid=      1180
 IPart=  3 Atom number   1 atomic number  7 has       23416 grid points.
 IPart= 13 Atom   1 batch   13 overlaps    8 atoms,    81 shells and     8 DB shells.   NGrid=       604
 Symmetry reduced   590 angular points to   590 for atom    1.
 IPart=  3 Atom   1 batch   14 overlaps    8 atoms,    81 shells and     8 DB shells.   NGrid=       604
 Symmetry reduced   302 angular points to   302 for atom    1.
 Pruned (  99, 590) grid will be used in numerical quadrature.
 Symmetry reduced   302 angular points to   302 for atom    1.
 IPart= 12 Atom number   1 atomic number  7 has       23416 grid points.
 Pruned (  99, 590) grid will be used in numerical quadrature.
 Pruned (  99, 590) grid will be used in numerical quadrature.
 IPart= 15 Atom number   1 atomic number  7 has       23416 grid points.
 IPart= 12 Atom   1 batch   15 overlaps    8 atoms,    79 shells and     8 DB shells.   NGrid=       604
 IPart= 15 Atom   1 batch   16 overlaps    8 atoms,    76 shells and     8 DB shells.   NGrid=       604
 IPart=  9 Atom number   1 atomic number  7 has       23416 grid points.
 Symmetry reduced   302 angular points to   302 for atom    1.
 IPart=  9 Atom   1 batch   12 overlaps    8 atoms,    81 shells and     8 DB shells.   NGrid=       590
 Symmetry reduced   302 angular points to   302 for atom    1.
 Symmetry reduced   590 angular points to   590 for atom    1.
 IPart= 15 Atom   1 batch   17 overlaps    8 atoms,    70 shells and     8 DB shells.   NGrid=       604
 IPart= 12 Atom   1 batch   18 overlaps    8 atoms,    55 shells and     8 DB shells.   NGrid=       604
 IPart= 13 Atom   1 batch   19 overlaps    8 atoms,    44 shells and     8 DB shells.   NGrid=       604
 IPart=  3 Atom   1 batch   20 overlaps    8 atoms,    28 shells and     7 DB shells.   NGrid=       604
 IPart=  9 Atom   1 batch   21 overlaps    8 atoms,    17 shells and     3 DB shells.   NGrid=       604
 Symmetry reduced   302 angular points to   302 for atom    1.
 IPart=  3 Atom   1 batch   22 overlaps    8 atoms,     8 shells and     0 DB shells.   NGrid=       604
 IPart=  9 Atom   1 batch   23 overlaps    8 atoms,     3 shells and     0 DB shells.   NGrid=       302
 Pruned (  99, 590) grid will be used in numerical quadrature.
 IPart=  9 Atom number   2 atomic number  6 has       23114 grid points.
 Pruned (  99, 590) grid will be used in numerical quadrature.
 IPart=  9 Atom   2 batch    1 overlaps    8 atoms,    82 shells and     8 DB shells.   NGrid=      2408
 IPart= 12 Atom number   2 atomic number  6 has       23114 grid points.
 Symmetry reduced    86 angular points to    86 for atom    2.
 IPart= 12 Atom   2 batch    2 overlaps    8 atoms,    82 shells and     8 DB shells.   NGrid=      2522
 Symmetry reduced   194 angular points to   194 for atom    2.
 Pruned (  99, 590) grid will be used in numerical quadrature.
 IPart= 13 Atom number   2 atomic number  6 has       23114 grid points.
 IPart= 13 Atom   2 batch    3 overlaps    8 atoms,    82 shells and     8 DB shells.   NGrid=      2114
 Symmetry reduced   302 angular points to   302 for atom    2.
 Pruned (  99, 590) grid will be used in numerical quadrature.
 IPart=  3 Atom number   2 atomic number  6 has       23114 grid points.
 IPart=  3 Atom   2 batch    4 overlaps    8 atoms,    82 shells and     8 DB shells.   NGrid=      1180
 Symmetry reduced   590 angular points to   590 for atom    2.
 Pruned (  99, 590) grid will be used in numerical quadrature.
 IPart= 15 Atom number   2 atomic number  6 has       23114 grid points.
 IPart= 15 Atom   2 batch    5 overlaps    8 atoms,    82 shells and     8 DB shells.   NGrid=      1180
 Symmetry reduced   590 angular points to   590 for atom    2.
 Pruned (  99, 590) grid will be used in numerical quadrature.
 IPart= 14 Atom number   2 atomic number  6 has       23114 grid points.
 IPart= 14 Atom   2 batch    6 overlaps    8 atoms,    82 shells and     8 DB shells.   NGrid=      1180
 Symmetry reduced   590 angular points to   590 for atom    2.
 Pruned (  99, 590) grid will be used in numerical quadrature.
 IPart=  7 Atom number   2 atomic number  6 has       23114 grid points.
 IPart=  7 Atom   2 batch    7 overlaps    8 atoms,    82 shells and     8 DB shells.   NGrid=      1180
 Symmetry reduced   590 angular points to   590 for atom    2.
 Pruned (  99, 590) grid will be used in numerical quadrature.
 IPart=  4 Atom number   2 atomic number  6 has       23114 grid points.
 IPart=  4 Atom   2 batch    8 overlaps    8 atoms,    82 shells and     8 DB shells.   NGrid=      1180
 Symmetry reduced   590 angular points to   590 for atom    2.
 Pruned (  99, 590) grid will be used in numerical quadrature.
 IPart=  2 Atom number   2 atomic number  6 has       23114 grid points.
 IPart=  2 Atom   2 batch    9 overlaps    8 atoms,    82 shells and     8 DB shells.   NGrid=      1180
 Symmetry reduced   590 angular points to   590 for atom    2.
 Pruned (  99, 590) grid will be used in numerical quadrature.
 Pruned (  99, 590) grid will be used in numerical quadrature.
 IPart= 11 Atom number   2 atomic number  6 has       23114 grid points.
 IPart= 10 Atom number   2 atomic number  6 has       23114 grid points.
 IPart= 11 Atom   2 batch   10 overlaps    8 atoms,    82 shells and     8 DB shells.   NGrid=      1180
 IPart= 10 Atom   2 batch   11 overlaps    8 atoms,    81 shells and     8 DB shells.   NGrid=      1180
 Pruned (  99, 590) grid will be used in numerical quadrature.
 Symmetry reduced   590 angular points to   590 for atom    2.
 IPart=  8 Atom number   2 atomic number  6 has       23114 grid points.
 Pruned (  99, 590) grid will be used in numerical quadrature.
 IPart=  8 Atom   2 batch   13 overlaps    8 atoms,    81 shells and     8 DB shells.   NGrid=       604
 IPart=  6 Atom number   2 atomic number  6 has       23114 grid points.
 Symmetry reduced   590 angular points to   590 for atom    2.
 IPart=  6 Atom   2 batch   12 overlaps    8 atoms,    81 shells and     8 DB shells.   NGrid=       590
 Symmetry reduced   302 angular points to   302 for atom    2.
 Symmetry reduced   590 angular points to   590 for atom    2.
 IPart=  6 Atom   2 batch   14 overlaps    8 atoms,    81 shells and     8 DB shells.   NGrid=       604
 Symmetry reduced   302 angular points to   302 for atom    2.
 IPart=  8 Atom   2 batch   15 overlaps    8 atoms,    77 shells and     8 DB shells.   NGrid=       604
 IPart=  3 Atom   2 batch   16 overlaps    8 atoms,    68 shells and     8 DB shells.   NGrid=       604
 Symmetry reduced   302 angular points to   302 for atom    2.
 IPart= 15 Atom   2 batch   17 overlaps    8 atoms,    57 shells and     8 DB shells.   NGrid=       604
 Symmetry reduced   302 angular points to   302 for atom    2.
 Pruned (  99, 590) grid will be used in numerical quadrature.
 IPart=  1 Atom number   2 atomic number  6 has       23114 grid points.
 IPart=  1 Atom   2 batch   18 overlaps    8 atoms,    46 shells and     8 DB shells.   NGrid=       604
 Symmetry reduced   302 angular points to   302 for atom    2.
 IPart= 10 Atom   2 batch   19 overlaps    8 atoms,    31 shells and     8 DB shells.   NGrid=       604
 Symmetry reduced   302 angular points to   302 for atom    2.
 IPart=  8 Atom   2 batch   20 overlaps    8 atoms,    23 shells and     3 DB shells.   NGrid=       604
 Pruned (  99, 590) grid will be used in numerical quadrature.
 IPart=  0 Atom number   2 atomic number  6 has       23114 grid points.
 IPart=  0 Atom   2 batch   21 overlaps    8 atoms,    10 shells and     0 DB shells.   NGrid=       604
 Symmetry reduced   302 angular points to   302 for atom    2.
 IPart=  1 Atom   2 batch   22 overlaps    8 atoms,     6 shells and     0 DB shells.   NGrid=       604
 Pruned (  99, 590) grid will be used in numerical quadrature.
 IPart=  6 Atom number   3 atomic number  1 has       23164 grid points.
 IPart=  6 Atom   3 batch    1 overlaps    8 atoms,    81 shells and     8 DB shells.   NGrid=      2838
 Symmetry reduced    86 angular points to    86 for atom    3.
 Pruned (  99, 590) grid will be used in numerical quadrature.
 IPart= 10 Atom number   3 atomic number  1 has       23164 grid points.
 IPart= 10 Atom   3 batch    2 overlaps    8 atoms,    82 shells and     8 DB shells.   NGrid=      1552
 Symmetry reduced   194 angular points to   194 for atom    3.
 Pruned (  99, 590) grid will be used in numerical quadrature.
 IPart=  8 Atom number   3 atomic number  1 has       23164 grid points.
 IPart=  8 Atom   3 batch    3 overlaps    8 atoms,    82 shells and     8 DB shells.   NGrid=      2416
 Symmetry reduced   302 angular points to   302 for atom    3.
 Pruned (  99, 590) grid will be used in numerical quadrature.
 IPart=  3 Atom number   3 atomic number  1 has       23164 grid points.
 IPart=  3 Atom   3 batch    4 overlaps    8 atoms,    82 shells and     8 DB shells.   NGrid=      1180
 Symmetry reduced   590 angular points to   590 for atom    3.
 Pruned (  99, 590) grid will be used in numerical quadrature.
 Pruned (  99, 590) grid will be used in numerical quadrature.
 IPart=  1 Atom number   3 atomic number  1 has       23164 grid points.
 IPart=  0 Atom number   3 atomic number  1 has       23164 grid points.
 IPart=  1 Atom   3 batch    5 overlaps    8 atoms,    82 shells and     8 DB shells.   NGrid=      1180
 IPart=  0 Atom   3 batch    6 overlaps    8 atoms,    82 shells and     8 DB shells.   NGrid=      1180
 Pruned (  99, 590) grid will be used in numerical quadrature.
 Symmetry reduced   590 angular points to   590 for atom    3.
 IPart= 15 Atom number   3 atomic number  1 has       23164 grid points.
 Symmetry reduced   590 angular points to   590 for atom    3.
 IPart= 15 Atom   3 batch    7 overlaps    8 atoms,    82 shells and     8 DB shells.   NGrid=      1180
 Symmetry reduced   590 angular points to   590 for atom    3.
 Pruned (  99, 590) grid will be used in numerical quadrature.
 Pruned (  99, 590) grid will be used in numerical quadrature.
 Pruned (  99, 590) grid will be used in numerical quadrature.
 IPart=  2 Atom number   3 atomic number  1 has       23164 grid points.
 IPart= 11 Atom number   3 atomic number  1 has       23164 grid points.
 IPart=  2 Atom   3 batch    9 overlaps    8 atoms,    82 shells and     8 DB shells.   NGrid=      1180
 IPart= 11 Atom   3 batch   10 overlaps    8 atoms,    82 shells and     8 DB shells.   NGrid=      1180
 IPart= 14 Atom number   3 atomic number  1 has       23164 grid points.
 Symmetry reduced   590 angular points to   590 for atom    3.
 Symmetry reduced   590 angular points to   590 for atom    3.
 Pruned (  99, 590) grid will be used in numerical quadrature.
 IPart= 14 Atom   3 batch    8 overlaps    8 atoms,    82 shells and     8 DB shells.   NGrid=      1180
 IPart=  4 Atom number   3 atomic number  1 has       23164 grid points.
 Symmetry reduced   590 angular points to   590 for atom    3.
 IPart=  4 Atom   3 batch   11 overlaps    8 atoms,    82 shells and     8 DB shells.   NGrid=      1180
 Symmetry reduced   590 angular points to   590 for atom    3.
 Pruned (  99, 590) grid will be used in numerical quadrature.
 IPart=  7 Atom number   3 atomic number  1 has       23164 grid points.
 IPart=  7 Atom   3 batch   12 overlaps    8 atoms,    82 shells and     8 DB shells.   NGrid=      1180
 Symmetry reduced   590 angular points to   590 for atom    3.
 Pruned (  99, 590) grid will be used in numerical quadrature.
 IPart=  5 Atom number   2 atomic number  6 has       23114 grid points.
 Pruned (  99, 590) grid will be used in numerical quadrature.
 IPart=  5 Atom number   3 atomic number  1 has       23164 grid points.
 IPart=  5 Atom   3 batch   13 overlaps    8 atoms,    82 shells and     8 DB shells.   NGrid=       604
 Symmetry reduced   302 angular points to   302 for atom    3.
 Pruned (  99, 590) grid will be used in numerical quadrature.
 IPart= 13 Atom number   3 atomic number  1 has       23164 grid points.
 IPart= 13 Atom   3 batch   14 overlaps    8 atoms,    81 shells and     8 DB shells.   NGrid=       604
 Symmetry reduced   302 angular points to   302 for atom    3.
 Pruned (  99, 590) grid will be used in numerical quadrature.
 IPart=  9 Atom number   3 atomic number  1 has       23164 grid points.
 IPart=  9 Atom   3 batch   15 overlaps    8 atoms,    78 shells and     8 DB shells.   NGrid=       604
 Symmetry reduced   302 angular points to   302 for atom    3.
 IPart=  5 Atom   3 batch   16 overlaps    8 atoms,    74 shells and     8 DB shells.   NGrid=       604
 Pruned (  99, 590) grid will be used in numerical quadrature.
 IPart= 12 Atom number   3 atomic number  1 has       23164 grid points.
 IPart= 12 Atom   3 batch   17 overlaps    8 atoms,    66 shells and     8 DB shells.   NGrid=       604
 Symmetry reduced   302 angular points to   302 for atom    3.
 IPart= 13 Atom   3 batch   18 overlaps    8 atoms,    49 shells and     8 DB shells.   NGrid=       604
 IPart=  7 Atom   3 batch   19 overlaps    8 atoms,    32 shells and     7 DB shells.   NGrid=       604
 Symmetry reduced   302 angular points to   302 for atom    3.
 IPart=  3 Atom   3 batch   20 overlaps    8 atoms,    22 shells and     4 DB shells.   NGrid=       604
 Symmetry reduced   302 angular points to   302 for atom    3.
 IPart=  4 Atom   3 batch   21 overlaps    8 atoms,     9 shells and     0 DB shells.   NGrid=       604
 Symmetry reduced   302 angular points to   302 for atom    3.
 IPart=  5 Atom   3 batch   22 overlaps    8 atoms,     5 shells and     0 DB shells.   NGrid=       302
 Pruned (  99, 590) grid will be used in numerical quadrature.
 Pruned (  99, 590) grid will be used in numerical quadrature.
 IPart=  9 Atom number   4 atomic number  1 has       23164 grid points.
 IPart=  2 Atom number   4 atomic number  1 has       23164 grid points.
 IPart=  9 Atom   4 batch    1 overlaps    8 atoms,    81 shells and     8 DB shells.   NGrid=      2838
 Pruned (  99, 590) grid will be used in numerical quadrature.
 IPart=  2 Atom   4 batch    2 overlaps    8 atoms,    82 shells and     8 DB shells.   NGrid=      1552
 IPart=  1 Atom number   4 atomic number  1 has       23164 grid points.
 Symmetry reduced    86 angular points to    86 for atom    4.
 IPart=  1 Atom   4 batch    3 overlaps    8 atoms,    82 shells and     8 DB shells.   NGrid=      2416
 Symmetry reduced   194 angular points to   194 for atom    4.
 Symmetry reduced   302 angular points to   302 for atom    4.
 Pruned (  99, 590) grid will be used in numerical quadrature.
 IPart=  0 Atom number   4 atomic number  1 has       23164 grid points.
 IPart=  0 Atom   4 batch    4 overlaps    8 atoms,    82 shells and     8 DB shells.   NGrid=      1180
 Symmetry reduced   590 angular points to   590 for atom    4.
 Pruned (  99, 590) grid will be used in numerical quadrature.
 IPart=  5 Atom number   4 atomic number  1 has       23164 grid points.
 Pruned (  99, 590) grid will be used in numerical quadrature.
 IPart=  5 Atom   4 batch    5 overlaps    8 atoms,    82 shells and     8 DB shells.   NGrid=      1180
 IPart= 12 Atom number   4 atomic number  1 has       23164 grid points.
 IPart= 12 Atom   4 batch    6 overlaps    8 atoms,    82 shells and     8 DB shells.   NGrid=      1180
 Pruned (  99, 590) grid will be used in numerical quadrature.
 Symmetry reduced   590 angular points to   590 for atom    4.
 IPart= 15 Atom number   4 atomic number  1 has       23164 grid points.
 Pruned (  99, 590) grid will be used in numerical quadrature.
 IPart= 15 Atom   4 batch    7 overlaps    8 atoms,    82 shells and     8 DB shells.   NGrid=      1180
 IPart=  7 Atom number   4 atomic number  1 has       23164 grid points.
 IPart=  7 Atom   4 batch    8 overlaps    8 atoms,    82 shells and     8 DB shells.   NGrid=      1180
 Symmetry reduced   590 angular points to   590 for atom    4.
 Symmetry reduced   590 angular points to   590 for atom    4.
 Symmetry reduced   590 angular points to   590 for atom    4.
 Pruned (  99, 590) grid will be used in numerical quadrature.
 Pruned (  99, 590) grid will be used in numerical quadrature.
 Pruned (  99, 590) grid will be used in numerical quadrature.
 IPart= 14 Atom number   4 atomic number  1 has       23164 grid points.
 IPart=  3 Atom number   4 atomic number  1 has       23164 grid points.
 IPart= 14 Atom   4 batch   10 overlaps    8 atoms,    82 shells and     8 DB shells.   NGrid=      1180
 IPart=  3 Atom   4 batch   11 overlaps    8 atoms,    82 shells and     8 DB shells.   NGrid=      1180
 IPart= 11 Atom number   4 atomic number  1 has       23164 grid points.
 Symmetry reduced   590 angular points to   590 for atom    4.
 IPart= 11 Atom   4 batch    9 overlaps    8 atoms,    82 shells and     8 DB shells.   NGrid=      1180
 Symmetry reduced   590 angular points to   590 for atom    4.
 Symmetry reduced   590 angular points to   590 for atom    4.
 Pruned (  99, 590) grid will be used in numerical quadrature.
 IPart=  4 Atom number   4 atomic number  1 has       23164 grid points.
 IPart=  4 Atom   4 batch   12 overlaps    8 atoms,    82 shells and     8 DB shells.   NGrid=      1180
 Symmetry reduced   590 angular points to   590 for atom    4.
 Pruned (  99, 590) grid will be used in numerical quadrature.
 IPart= 13 Atom number   4 atomic number  1 has       23164 grid points.
 IPart= 13 Atom   4 batch   13 overlaps    8 atoms,    82 shells and     8 DB shells.   NGrid=       604
 Symmetry reduced   302 angular points to   302 for atom    4.
 Pruned (  99, 590) grid will be used in numerical quadrature.
 IPart= 10 Atom number   4 atomic number  1 has       23164 grid points.
 IPart= 10 Atom   4 batch   14 overlaps    8 atoms,    81 shells and     8 DB shells.   NGrid=       604
 Symmetry reduced   302 angular points to   302 for atom    4.
 IPart= 13 Atom   4 batch   15 overlaps    8 atoms,    78 shells and     8 DB shells.   NGrid=       604
 IPart= 10 Atom   4 batch   16 overlaps    8 atoms,    74 shells and     8 DB shells.   NGrid=       604
 IPart= 13 Atom   4 batch   17 overlaps    8 atoms,    66 shells and     8 DB shells.   NGrid=       604
 Pruned (  99, 590) grid will be used in numerical quadrature.
 IPart=  8 Atom number   4 atomic number  1 has       23164 grid points.
 IPart=  8 Atom   4 batch   18 overlaps    8 atoms,    49 shells and     8 DB shells.   NGrid=       604
 Symmetry reduced   302 angular points to   302 for atom    4.
 IPart= 10 Atom   4 batch   19 overlaps    8 atoms,    32 shells and     7 DB shells.   NGrid=       604
 IPart=  3 Atom   4 batch   20 overlaps    8 atoms,    22 shells and     4 DB shells.   NGrid=       604
 Symmetry reduced   302 angular points to   302 for atom    4.
 IPart=  4 Atom   4 batch   21 overlaps    8 atoms,     9 shells and     0 DB shells.   NGrid=       604
 Symmetry reduced   302 angular points to   302 for atom    4.
 IPart=  0 Atom   4 batch   22 overlaps    8 atoms,     5 shells and     0 DB shells.   NGrid=       302
 Symmetry reduced   302 angular points to   302 for atom    4.
 Pruned (  99, 590) grid will be used in numerical quadrature.
 IPart=  5 Atom number   5 atomic number  1 has       23164 grid points.
 IPart=  5 Atom   5 batch    1 overlaps    8 atoms,    81 shells and     8 DB shells.   NGrid=      2838
 Symmetry reduced    86 angular points to    86 for atom    5.
 Pruned (  99, 590) grid will be used in numerical quadrature.
 IPart= 15 Atom number   5 atomic number  1 has       23164 grid points.
 Pruned (  99, 590) grid will be used in numerical quadrature.
 IPart= 15 Atom   5 batch    2 overlaps    8 atoms,    82 shells and     8 DB shells.   NGrid=      1552
 IPart= 11 Atom number   5 atomic number  1 has       23164 grid points.
 Pruned (  99, 590) grid will be used in numerical quadrature.
 Symmetry reduced   194 angular points to   194 for atom    5.
 IPart=  0 Atom number   5 atomic number  1 has       23164 grid points.
 IPart= 11 Atom   5 batch    4 overlaps    8 atoms,    82 shells and     8 DB shells.   NGrid=      1180
 IPart=  0 Atom   5 batch    3 overlaps    8 atoms,    82 shells and     8 DB shells.   NGrid=      2416
 Pruned (  99, 590) grid will be used in numerical quadrature.
 Symmetry reduced   590 angular points to   590 for atom    5.
 IPart= 12 Atom number   5 atomic number  1 has       23164 grid points.
 Symmetry reduced   302 angular points to   302 for atom    5.
 IPart= 12 Atom   5 batch    5 overlaps    8 atoms,    82 shells and     8 DB shells.   NGrid=      1180
 Symmetry reduced   590 angular points to   590 for atom    5.
 Pruned (  99, 590) grid will be used in numerical quadrature.
 IPart=  7 Atom number   5 atomic number  1 has       23164 grid points.
 Pruned (  99, 590) grid will be used in numerical quadrature.
 Pruned (  99, 590) grid will be used in numerical quadrature.
 IPart=  7 Atom   5 batch    6 overlaps    8 atoms,    82 shells and     8 DB shells.   NGrid=      1180
 IPart= 10 Atom number   5 atomic number  1 has       23164 grid points.
 Symmetry reduced   590 angular points to   590 for atom    5.
 IPart= 10 Atom   5 batch    8 overlaps    8 atoms,    82 shells and     8 DB shells.   NGrid=      1180
 IPart=  3 Atom number   5 atomic number  1 has       23164 grid points.
 Symmetry reduced   590 angular points to   590 for atom    5.
 IPart=  3 Atom   5 batch    7 overlaps    8 atoms,    82 shells and     8 DB shells.   NGrid=      1180
 Symmetry reduced   590 angular points to   590 for atom    5.
 Pruned (  99, 590) grid will be used in numerical quadrature.
 IPart= 14 Atom number   5 atomic number  1 has       23164 grid points.
 IPart= 14 Atom   5 batch    9 overlaps    8 atoms,    82 shells and     8 DB shells.   NGrid=      1180
 Symmetry reduced   590 angular points to   590 for atom    5.
 Pruned (  99, 590) grid will be used in numerical quadrature.
 Pruned (  99, 590) grid will be used in numerical quadrature.
 IPart=  4 Atom number   5 atomic number  1 has       23164 grid points.
 IPart=  8 Atom number   5 atomic number  1 has       23164 grid points.
 Pruned (  99, 590) grid will be used in numerical quadrature.
 IPart=  4 Atom   5 batch   10 overlaps    8 atoms,    82 shells and     8 DB shells.   NGrid=      1180
 IPart=  6 Atom number   4 atomic number  1 has       23164 grid points.
 Pruned (  99, 590) grid will be used in numerical quadrature.
 Symmetry reduced   590 angular points to   590 for atom    5.
 IPart=  6 Atom number   5 atomic number  1 has       23164 grid points.
 IPart=  6 Atom   5 batch   12 overlaps    8 atoms,    82 shells and     8 DB shells.   NGrid=      1180
 IPart=  8 Atom   5 batch   11 overlaps    8 atoms,    82 shells and     8 DB shells.   NGrid=      1180
 Symmetry reduced   590 angular points to   590 for atom    5.
 Symmetry reduced   590 angular points to   590 for atom    5.
 Pruned (  99, 590) grid will be used in numerical quadrature.
 IPart= 13 Atom number   5 atomic number  1 has       23164 grid points.
 IPart= 13 Atom   5 batch   13 overlaps    8 atoms,    82 shells and     8 DB shells.   NGrid=       604
 Symmetry reduced   302 angular points to   302 for atom    5.
 Pruned (  99, 590) grid will be used in numerical quadrature.
 IPart=  2 Atom number   5 atomic number  1 has       23164 grid points.
 IPart=  2 Atom   5 batch   14 overlaps    8 atoms,    81 shells and     8 DB shells.   NGrid=       604
 Symmetry reduced   302 angular points to   302 for atom    5.
 IPart= 13 Atom   5 batch   15 overlaps    8 atoms,    78 shells and     8 DB shells.   NGrid=       604
 IPart=  2 Atom   5 batch   16 overlaps    8 atoms,    74 shells and     8 DB shells.   NGrid=       604
 IPart=  6 Atom   5 batch   17 overlaps    8 atoms,    66 shells and     8 DB shells.   NGrid=       604
 Symmetry reduced   302 angular points to   302 for atom    5.
 Pruned (  99, 590) grid will be used in numerical quadrature.
 IPart=  1 Atom number   5 atomic number  1 has       23164 grid points.
 IPart=  1 Atom   5 batch   18 overlaps    8 atoms,    49 shells and     8 DB shells.   NGrid=       604
 Symmetry reduced   302 angular points to   302 for atom    5.
 IPart=  2 Atom   5 batch   19 overlaps    8 atoms,    32 shells and     7 DB shells.   NGrid=       604
 IPart= 13 Atom   5 batch   20 overlaps    8 atoms,    22 shells and     4 DB shells.   NGrid=       604
 IPart=  8 Atom   5 batch   21 overlaps    8 atoms,     9 shells and     0 DB shells.   NGrid=       604
 IPart= 11 Atom   5 batch   22 overlaps    8 atoms,     5 shells and     0 DB shells.   NGrid=       302
 Symmetry reduced   302 angular points to   302 for atom    5.
 Symmetry reduced   302 angular points to   302 for atom    5.
 Pruned (  99, 590) grid will be used in numerical quadrature.
 IPart= 12 Atom number   6 atomic number  1 has       23164 grid points.
 IPart= 12 Atom   6 batch    1 overlaps    8 atoms,    81 shells and     8 DB shells.   NGrid=      2838
 Symmetry reduced    86 angular points to    86 for atom    6.
 Pruned (  99, 590) grid will be used in numerical quadrature.
 IPart= 14 Atom number   6 atomic number  1 has       23164 grid points.
 IPart= 14 Atom   6 batch    2 overlaps    8 atoms,    81 shells and     8 DB shells.   NGrid=      1552
 Symmetry reduced   194 angular points to   194 for atom    6.
 Pruned (  99, 590) grid will be used in numerical quadrature.
 IPart=  7 Atom number   6 atomic number  1 has       23164 grid points.
 Pruned (  99, 590) grid will be used in numerical quadrature.
 IPart=  7 Atom   6 batch    3 overlaps    8 atoms,    81 shells and     8 DB shells.   NGrid=      2416
 IPart= 11 Atom number   6 atomic number  1 has       23164 grid points.
 Pruned (  99, 590) grid will be used in numerical quadrature.
 IPart= 11 Atom   6 batch    4 overlaps    8 atoms,    82 shells and     8 DB shells.   NGrid=      1180
 Symmetry reduced   302 angular points to   302 for atom    6.
 Pruned (  99, 590) grid will be used in numerical quadrature.
 Symmetry reduced   590 angular points to   590 for atom    6.
 IPart= 13 Atom number   6 atomic number  1 has       23164 grid points.
 IPart=  3 Atom number   6 atomic number  1 has       23164 grid points.
 IPart= 13 Atom   6 batch    6 overlaps    8 atoms,    82 shells and     8 DB shells.   NGrid=      1180
 IPart=  3 Atom   6 batch    5 overlaps    8 atoms,    82 shells and     8 DB shells.   NGrid=      1180
 Symmetry reduced   590 angular points to   590 for atom    6.
 Symmetry reduced   590 angular points to   590 for atom    6.
 Pruned (  99, 590) grid will be used in numerical quadrature.
 IPart=  2 Atom number   6 atomic number  1 has       23164 grid points.
 IPart=  2 Atom   6 batch    7 overlaps    8 atoms,    82 shells and     8 DB shells.   NGrid=      1180
 Pruned (  99, 590) grid will be used in numerical quadrature.
 Symmetry reduced   590 angular points to   590 for atom    6.
 IPart= 10 Atom number   6 atomic number  1 has       23164 grid points.
 IPart= 10 Atom   6 batch    8 overlaps    8 atoms,    82 shells and     8 DB shells.   NGrid=      1180
 Symmetry reduced   590 angular points to   590 for atom    6.
 Pruned (  99, 590) grid will be used in numerical quadrature.
 IPart=  4 Atom number   6 atomic number  1 has       23164 grid points.
 IPart=  4 Atom   6 batch    9 overlaps    8 atoms,    82 shells and     8 DB shells.   NGrid=      1180
 Symmetry reduced   590 angular points to   590 for atom    6.
 Pruned (  99, 590) grid will be used in numerical quadrature.
 Pruned (  99, 590) grid will be used in numerical quadrature.
 IPart=  1 Atom number   6 atomic number  1 has       23164 grid points.
 IPart=  9 Atom number   5 atomic number  1 has       23164 grid points.
 IPart=  1 Atom   6 batch   10 overlaps    8 atoms,    82 shells and     8 DB shells.   NGrid=      1180
 Pruned (  99, 590) grid will be used in numerical quadrature.
 Pruned (  99, 590) grid will be used in numerical quadrature.
 IPart=  9 Atom number   6 atomic number  1 has       23164 grid points.
 IPart=  8 Atom number   6 atomic number  1 has       23164 grid points.
 IPart=  9 Atom   6 batch   11 overlaps    8 atoms,    82 shells and     8 DB shells.   NGrid=      1180
 IPart=  8 Atom   6 batch   12 overlaps    8 atoms,    82 shells and     8 DB shells.   NGrid=      1180
 Symmetry reduced   590 angular points to   590 for atom    6.
 Symmetry reduced   590 angular points to   590 for atom    6.
 Symmetry reduced   590 angular points to   590 for atom    6.
 Pruned (  99, 590) grid will be used in numerical quadrature.
 IPart=  6 Atom number   6 atomic number  1 has       23164 grid points.
 IPart=  6 Atom   6 batch   13 overlaps    8 atoms,    82 shells and     8 DB shells.   NGrid=       604
 Symmetry reduced   302 angular points to   302 for atom    6.
 Pruned (  99, 590) grid will be used in numerical quadrature.
 IPart= 15 Atom number   6 atomic number  1 has       23164 grid points.
 IPart= 15 Atom   6 batch   14 overlaps    8 atoms,    82 shells and     8 DB shells.   NGrid=       604
 Symmetry reduced   302 angular points to   302 for atom    6.
 IPart= 15 Atom   6 batch   15 overlaps    8 atoms,    78 shells and     8 DB shells.   NGrid=       604
 IPart=  6 Atom   6 batch   16 overlaps    8 atoms,    76 shells and     8 DB shells.   NGrid=       604
 Pruned (  99, 590) grid will be used in numerical quadrature.
 IPart=  6 Atom   6 batch   18 overlaps    8 atoms,    49 shells and     8 DB shells.   NGrid=       604
 IPart=  0 Atom number   6 atomic number  1 has       23164 grid points.
 IPart=  0 Atom   6 batch   17 overlaps    8 atoms,    64 shells and     8 DB shells.   NGrid=       604
 Symmetry reduced   302 angular points to   302 for atom    6.
 IPart=  8 Atom   6 batch   19 overlaps    8 atoms,    34 shells and     8 DB shells.   NGrid=       604
 Symmetry reduced   302 angular points to   302 for atom    6.
 IPart= 15 Atom   6 batch   20 overlaps    8 atoms,    21 shells and     3 DB shells.   NGrid=       604
 IPart= 11 Atom   6 batch   21 overlaps    8 atoms,    10 shells and     0 DB shells.   NGrid=       604
 IPart=  3 Atom   6 batch   22 overlaps    8 atoms,     5 shells and     0 DB shells.   NGrid=       302
 Symmetry reduced   302 angular points to   302 for atom    6.
 Symmetry reduced   302 angular points to   302 for atom    6.
 Pruned (  99, 590) grid will be used in numerical quadrature.
 IPart=  9 Atom number   7 atomic number  1 has       23164 grid points.
 IPart=  9 Atom   7 batch    1 overlaps    8 atoms,    81 shells and     8 DB shells.   NGrid=      2838
 Symmetry reduced    86 angular points to    86 for atom    7.
 Pruned (  99, 590) grid will be used in numerical quadrature.
 IPart= 13 Atom number   7 atomic number  1 has       23164 grid points.
 IPart= 13 Atom   7 batch    2 overlaps    8 atoms,    81 shells and     8 DB shells.   NGrid=      1552
 Symmetry reduced   194 angular points to   194 for atom    7.
 Pruned (  99, 590) grid will be used in numerical quadrature.
 IPart=  2 Atom number   7 atomic number  1 has       23164 grid points.
 IPart=  2 Atom   7 batch    3 overlaps    8 atoms,    81 shells and     8 DB shells.   NGrid=      2416
 Symmetry reduced   302 angular points to   302 for atom    7.
 Pruned (  99, 590) grid will be used in numerical quadrature.
 Pruned (  99, 590) grid will be used in numerical quadrature.
 IPart=  4 Atom number   7 atomic number  1 has       23164 grid points.
 IPart=  3 Atom number   7 atomic number  1 has       23164 grid points.
 IPart=  4 Atom   7 batch    4 overlaps    8 atoms,    82 shells and     8 DB shells.   NGrid=      1180
 IPart=  3 Atom   7 batch    5 overlaps    8 atoms,    82 shells and     8 DB shells.   NGrid=      1180
 Symmetry reduced   590 angular points to   590 for atom    7.
 Symmetry reduced   590 angular points to   590 for atom    7.
 Pruned (  99, 590) grid will be used in numerical quadrature.
 IPart=  8 Atom number   7 atomic number  1 has       23164 grid points.
 IPart=  8 Atom   7 batch    6 overlaps    8 atoms,    82 shells and     8 DB shells.   NGrid=      1180
 Symmetry reduced   590 angular points to   590 for atom    7.
 Pruned (  99, 590) grid will be used in numerical quadrature.
 IPart= 15 Atom number   7 atomic number  1 has       23164 grid points.
 IPart= 15 Atom   7 batch    7 overlaps    8 atoms,    82 shells and     8 DB shells.   NGrid=      1180
 Symmetry reduced   590 angular points to   590 for atom    7.
 Pruned (  99, 590) grid will be used in numerical quadrature.
 IPart= 10 Atom number   7 atomic number  1 has       23164 grid points.
 IPart= 10 Atom   7 batch    8 overlaps    8 atoms,    82 shells and     8 DB shells.   NGrid=      1180
 Pruned (  99, 590) grid will be used in numerical quadrature.
 Symmetry reduced   590 angular points to   590 for atom    7.
 IPart=  5 Atom number   6 atomic number  1 has       23164 grid points.
 Pruned (  99, 590) grid will be used in numerical quadrature.
 IPart=  5 Atom number   7 atomic number  1 has       23164 grid points.
 IPart=  5 Atom   7 batch    9 overlaps    8 atoms,    82 shells and     8 DB shells.   NGrid=      1180
 Symmetry reduced   590 angular points to   590 for atom    7.
 Pruned (  99, 590) grid will be used in numerical quadrature.
 IPart=  1 Atom number   7 atomic number  1 has       23164 grid points.
 IPart=  1 Atom   7 batch   10 overlaps    8 atoms,    82 shells and     8 DB shells.   NGrid=      1180
 Symmetry reduced   590 angular points to   590 for atom    7.
 Pruned (  99, 590) grid will be used in numerical quadrature.
 IPart= 11 Atom number   7 atomic number  1 has       23164 grid points.
 IPart= 11 Atom   7 batch   11 overlaps    8 atoms,    82 shells and     8 DB shells.   NGrid=      1180
[...]
 2651 Fit       0.135575
 2652 Fit       0.138879
 2653 Fit       0.143417
 2654 Fit       0.136218
 2655 Fit       0.138545
 2656 Fit       0.142024
 2657 Fit       0.136218
 2658 Fit       0.138545
 2659 Fit       0.142024
 2660 Fit       0.149516
 2661 Fit       0.157648
 2662 Fit       0.131250
 2663 Fit       0.131195
 2664 Fit       0.131856
 2665 Fit       0.133284
 2666 Fit       0.135575
 2667 Fit       0.138879
 2668 Fit       0.143417
 2669 Fit       0.146162
 2670 Fit       0.153581
 2671 Fit       0.163269
 2672 Fit       0.131234
 2673 Fit       0.129810
 2674 Fit       0.129078
 2675 Fit       0.129017
 2676 Fit       0.129640
 2677 Fit       0.130993
 2678 Fit       0.133159
 2679 Fit       0.136269
 2680 Fit       0.140515
 2681 Fit       0.143530
 2682 Fit       0.150377
 2683 Fit       0.159142
 2684 Fit       0.170171
 2685 Fit       0.132758
 2686 Fit       0.130391
 2687 Fit       0.128794
 2688 Fit       0.127907
 2689 Fit       0.127701
 2690 Fit       0.128182
 2691 Fit       0.129384
 2692 Fit       0.131381
 2693 Fit       0.134285
 2694 Fit       0.138261
 2695 Fit       0.141552
 2696 Fit       0.147760
 2697 Fit       0.155532
 2698 Fit       0.164998
 2699 Fit       0.133034
 2700 Fit       0.130449
 2701 Fit       0.128653
 2702 Fit       0.127584
 2703 Fit       0.127210
 2704 Fit       0.127527
 2705 Fit       0.128559
 2706 Fit       0.130365
 2707 Fit       0.133039
 2708 Fit       0.136711
 2709 Fit       0.140176
 2710 Fit       0.146151
 2711 Fit       0.153549
 2712 Fit       0.162326
 2713 Fit       0.136833
 2714 Fit       0.133161
 2715 Fit       0.130460
 2716 Fit       0.128650
 2717 Fit       0.127675
 2718 Fit       0.127506
 2719 Fit       0.128148
 2720 Fit       0.129641
 2721 Fit       0.132063
 2722 Fit       0.135528
 2723 Fit       0.139365
 2724 Fit       0.145056
 2725 Fit       0.151988
 2726 Fit       0.159916
 2727 Fit       0.168315
 2728 Fit       0.143459
 2729 Fit       0.138249
 2730 Fit       0.134230
 2731 Fit       0.131321
 2732 Fit       0.129448
 2733 Fit       0.128560
 2734 Fit       0.128633
 2735 Fit       0.129682
 2736 Fit       0.131761
 2737 Fit       0.134956
 2738 Fit       0.139097
 2739 Fit       0.144708
 2740 Fit       0.151374
 2741 Fit       0.158413
 2742 Fit       0.164655
 2743 Fit       0.168453
 2744 Fit       0.168199
 2745 Fit       0.163739
 2746 Fit       0.156823
 2747 Fit       0.149516
 2748 Fit       0.143028
 2749 Fit       0.137811
 2750 Fit       0.133971
 2751 Fit       0.131496
 2752 Fit       0.130348
 2753 Fit       0.130506
 2754 Fit       0.131987
 2755 Fit       0.134838
 2756 Fit       0.139365
 2757 Fit       0.145217
 2758 Fit       0.151519
 2759 Fit       0.156097
 2760 Fit       0.156576
 2761 Fit       0.152513
 2762 Fit       0.146162
 2763 Fit       0.140085
 2764 Fit       0.135631
 2765 Fit       0.133268
 2766 Fit       0.133113
 2767 Fit       0.135179
 2768 Fit       0.140176
 2769 Fit       0.145964
 2770 Fit       0.147987
 2771 Fit       0.143530
 2772 Fit       0.138140
 2773 Fit       0.136715
 2774 Fit       0.141552
 2775 Fit       0.149516
 2776 Fit       0.143985
 2777 Fit       0.141181
 2778 Fit       0.158933
 2779 Fit       0.149691
 2780 Fit       0.143249
 2781 Fit       0.139031
 2782 Fit       0.136700
 2783 Fit       0.136113
 2784 Fit       0.166776
 2785 Fit       0.155174
 2786 Fit       0.146791
 2787 Fit       0.140786
 2788 Fit       0.136634
 2789 Fit       0.134016
 2790 Fit       0.132769
 2791 Fit       0.132857
 2792 Fit       0.134359
 2793 Fit       0.162074
 2794 Fit       0.151985
 2795 Fit       0.144519
 2796 Fit       0.139012
 2797 Fit       0.135037
 2798 Fit       0.132325
 2799 Fit       0.130720
 2800 Fit       0.130158
 2801 Fit       0.130656
 2802 Fit       0.132306
 2803 Fit       0.159719
 2804 Fit       0.150173
 2805 Fit       0.143036
 2806 Fit       0.137711
 2807 Fit       0.133804
 2808 Fit       0.131061
 2809 Fit       0.129331
 2810 Fit       0.128540
 2811 Fit       0.128688
 2812 Fit       0.129840
 2813 Fit       0.132123
 2814 Fit       0.157709
 2815 Fit       0.148825
 2816 Fit       0.142092
 2817 Fit       0.136999
 2818 Fit       0.133201
 2819 Fit       0.130468
 2820 Fit       0.128657
 2821 Fit       0.127696
 2822 Fit       0.127570
 2823 Fit       0.128319
 2824 Fit       0.130038
 2825 Fit       0.162078
 2826 Fit       0.152272
 2827 Fit       0.144800
 2828 Fit       0.139097
 2829 Fit       0.134775
 2830 Fit       0.131568
 2831 Fit       0.129302
 2832 Fit       0.127874
 2833 Fit       0.127239
 2834 Fit       0.127402
 2835 Fit       0.128419
 2836 Fit       0.130395
 2837 Fit       0.157709
 2838 Fit       0.148825
 2839 Fit       0.142092
 2840 Fit       0.136999
 2841 Fit       0.133201
 2842 Fit       0.130468
 2843 Fit       0.128657
 2844 Fit       0.127696
 2845 Fit       0.127570
 2846 Fit       0.128319
 2847 Fit       0.130038
 2848 Fit       0.159719
 2849 Fit       0.150173
 2850 Fit       0.143036
 2851 Fit       0.137711
 2852 Fit       0.133804
 2853 Fit       0.131061
 2854 Fit       0.129331
 2855 Fit       0.128540
 2856 Fit       0.128688
 2857 Fit       0.129840
 2858 Fit       0.132123
 2859 Fit       0.162074
 2860 Fit       0.151985
 2861 Fit       0.144519
 2862 Fit       0.139012
 2863 Fit       0.135037
 2864 Fit       0.132325
 2865 Fit       0.130720
 2866 Fit       0.130158
 2867 Fit       0.130656
 2868 Fit       0.132306
 2869 Fit       0.166776
 2870 Fit       0.155174
 2871 Fit       0.146791
 2872 Fit       0.140786
 2873 Fit       0.136634
 2874 Fit       0.134016
 2875 Fit       0.132769
 2876 Fit       0.132857
 2877 Fit       0.134359
 2878 Fit       0.158933
 2879 Fit       0.149691
 2880 Fit       0.143249
 2881 Fit       0.139031
 2882 Fit       0.136700
 2883 Fit       0.136113
 2884 Fit       0.149516
 2885 Fit       0.143985
 2886 Fit       0.141181
 -----------------------------------------------------------------
 Leave Link  602 at Tue Sep 30 16:58:57 2025, MaxMem=  4294967296 cpu:               1.5 elap:               0.1
 (Enter /software/sse/easybuild/prefix/software/Gaussian/16.C.01-avx2-nsc1/g16/l701.exe)
 ... and contract with generalized density number  0.
 Compute integral first derivatives.
 Leave Link  701 at Tue Sep 30 16:58:58 2025, MaxMem=  4294967296 cpu:               2.1 elap:               0.2
 (Enter /software/sse/easybuild/prefix/software/Gaussian/16.C.01-avx2-nsc1/g16/l702.exe)
 L702 exits ... SP integral derivatives will be done elsewhere.
 Leave Link  702 at Tue Sep 30 16:58:58 2025, MaxMem=  4294967296 cpu:               0.3 elap:               0.0
 (Enter /software/sse/easybuild/prefix/software/Gaussian/16.C.01-avx2-nsc1/g16/l703.exe)
 Integral derivatives from FoFJK, PRISM(SPDF).
 Compute integral first derivatives, UseDBF=F ICtDFT=           0.
 Calling FoFJK, ICntrl=      2127 FMM=F ISym2X=1 I1Cent= 0 IOpClX= 0 NMat=1 NMatS=1 NMatT=0.
 FoFJK:  IHMeth= 1 ICntrl=    2127 DoSepK=F KAlg= 0 I1Cent=           0 FoldK=F
 IRaf=         0 NMat=       1 IRICut=       1 DoRegI=T DoRafI=F ISym2E= 1 IDoP0=0 IntGTp=1.
 FoFCou: FMM=F IPFlag=           0 FMFlag=      100000 FMFlg1=         800
         NFxFlg=           0 DoJE=F BraDBF=F KetDBF=F FulRan=T
         wScrn=  0.000000 ICntrl=      2127 IOpCl=  0 I1Cent=           0 NGrid=           0
         NMat0=    1 NMatS0=      1 NMatT0=    0 NMatD0=    1 NMtDS0=    0 NMtDT0=    0
 Petite list used in FoFCou.
 Leave Link  703 at Tue Sep 30 16:59:00 2025, MaxMem=  4294967296 cpu:              32.9 elap:               2.1
 (Enter /software/sse/easybuild/prefix/software/Gaussian/16.C.01-avx2-nsc1/g16/l716.exe)
 Dipole        = 4.58436379D-06 8.42921495D-01-2.22044605D-16
 ***** Axes restored to original set *****
 -------------------------------------------------------------------
 Center     Atomic                   Forces (Hartrees/Bohr)
 Number     Number              X              Y              Z
 -------------------------------------------------------------------
      1        7          -0.000000000    0.000003880    0.000001942
      2        6          -0.000000000   -0.000001140   -0.000003120
      3        1          -0.000000000   -0.000002827    0.000001041
      4        1           0.000000321   -0.000000468   -0.000000284
      5        1          -0.000000321   -0.000000468   -0.000000284
      6        1          -0.000001034    0.000000338    0.000000334
      7        1           0.000001034    0.000000338    0.000000334
      8        1          -0.000000000    0.000000346    0.000000037
 -------------------------------------------------------------------
 Cartesian Forces:  Max     0.000003880 RMS     0.000001330
 Leave Link  716 at Tue Sep 30 16:59:00 2025, MaxMem=  4294967296 cpu:               0.4 elap:               0.0
 (Enter /software/sse/easybuild/prefix/software/Gaussian/16.C.01-avx2-nsc1/g16/l103.exe)

 GradGradGradGradGradGradGradGradGradGradGradGradGradGradGradGradGradGrad
 Berny optimization.
 FormGI is forming the generalized inverse of G from B-inverse, IUseBI=4.
 Internal  Forces:  Max     0.000003012 RMS     0.000000808
 Search for a local minimum.
 Step number   1 out of a maximum of   38
 All quantities printed in internal units (Hartrees-Bohrs-Radians)
 RMS Force = .80759D-06 SwitMx=.10000D-02 MixMth= 2
 Mixed Optimization -- En-DIIS/RFO-DIIS
 Second derivative matrix not updated -- first step.
 ITU=  0
     Eigenvalues ---    0.00326   0.05431   0.05431   0.06018   0.06018
     Eigenvalues ---    0.16000   0.16000   0.16000   0.16000   0.16000
     Eigenvalues ---    0.16000   0.32036   0.36344   0.36344   0.36344
     Eigenvalues ---    0.46373   0.46373   0.46373
 RFO step:  Lambda= 0.00000000D+00 EMin= 3.25583989D-03
 Linear search not attempted -- first point.
 Iteration  1 RMS(Cart)=  0.00000238 RMS(Int)=  0.00000000
 Iteration  2 RMS(Cart)=  0.00000000 RMS(Int)=  0.00000000
 ITry= 1 IFail=0 DXMaxC= 4.64D-06 DCOld= 1.00D+10 DXMaxT= 3.00D-01 DXLimC= 3.00D+00 Rises=F
 ClnCor:  largest displacement from symmetrization is 2.50D-13 for atom     5.
 Variable       Old X    -DE/DX   Delta X   Delta X   Delta X     New X
                                 (Linear)    (Quad)   (Total)
    R1        2.84079  -0.00000   0.00000  -0.00001  -0.00001   2.84078
    R2        1.90413  -0.00000   0.00000  -0.00001  -0.00001   1.90412
    R3        1.90412   0.00000   0.00000   0.00000   0.00000   1.90412
    R4        1.90412   0.00000   0.00000   0.00000   0.00000   1.90412
    R5        2.03547   0.00000   0.00000   0.00000   0.00000   2.03547
    R6        2.03547   0.00000   0.00000   0.00000   0.00000   2.03547
    R7        2.03547  -0.00000   0.00000  -0.00000  -0.00000   2.03547
    A1        1.94349   0.00000   0.00000   0.00000   0.00000   1.94349
    A2        1.94349   0.00000   0.00000   0.00000   0.00000   1.94349
    A3        1.94349   0.00000   0.00000   0.00000   0.00000   1.94349
    A4        1.87666  -0.00000   0.00000   0.00000   0.00000   1.87666
    A5        1.87666  -0.00000   0.00000   0.00000   0.00000   1.87666
    A6        1.87667  -0.00000   0.00000  -0.00001  -0.00001   1.87666
    A7        1.88779  -0.00000   0.00000   0.00000   0.00000   1.88779
    A8        1.88779  -0.00000   0.00000   0.00000   0.00000   1.88779
    A9        1.88779   0.00000   0.00000   0.00000   0.00000   1.88779
   A10        1.93291   0.00000   0.00000   0.00000   0.00000   1.93291
   A11        1.93292  -0.00000   0.00000  -0.00000  -0.00000   1.93291
   A12        1.93292  -0.00000   0.00000  -0.00000  -0.00000   1.93291
    D1        1.04720   0.00000   0.00000   0.00000   0.00000   1.04720
    D2       -1.04720  -0.00000   0.00000  -0.00000  -0.00000  -1.04720
    D3        3.14159   0.00000   0.00000   0.00000   0.00000   3.14159
    D4       -1.04719  -0.00000   0.00000  -0.00000  -0.00000  -1.04720
    D5       -3.14159  -0.00000   0.00000  -0.00000  -0.00000  -3.14159
    D6        1.04720  -0.00000   0.00000  -0.00000  -0.00000   1.04720
    D7        3.14159   0.00000   0.00000   0.00000   0.00000   3.14159
    D8        1.04719   0.00000   0.00000   0.00000   0.00000   1.04720
    D9       -1.04720   0.00000   0.00000   0.00000   0.00000  -1.04720
         Item               Value     Threshold  Converged?
 Maximum Force            0.000003     0.000015     YES
 RMS     Force            0.000001     0.000010     YES
 Maximum Displacement     0.000005     0.000060     YES
 RMS     Displacement     0.000002     0.000040     YES
 Predicted change in Energy=-2.711854D-11
 Optimization completed.
    -- Stationary point found.
                           ----------------------------
                           !   Optimized Parameters   !
                           ! (Angstroms and Degrees)  !
 --------------------------                            --------------------------
 ! Name  Definition              Value          Derivative Info.                !
 --------------------------------------------------------------------------------
 ! R1    R(1,2)                  1.5033         -DE/DX =    0.0                 !
 ! R2    R(1,3)                  1.0076         -DE/DX =    0.0                 !
 ! R3    R(1,4)                  1.0076         -DE/DX =    0.0                 !
 ! R4    R(1,5)                  1.0076         -DE/DX =    0.0                 !
 ! R5    R(2,6)                  1.0771         -DE/DX =    0.0                 !
 ! R6    R(2,7)                  1.0771         -DE/DX =    0.0                 !
 ! R7    R(2,8)                  1.0771         -DE/DX =    0.0                 !
 ! A1    A(2,1,3)              111.3537         -DE/DX =    0.0                 !
 ! A2    A(2,1,4)              111.3538         -DE/DX =    0.0                 !
 ! A3    A(2,1,5)              111.3538         -DE/DX =    0.0                 !
 ! A4    A(3,1,4)              107.5247         -DE/DX =    0.0                 !
 ! A5    A(3,1,5)              107.5247         -DE/DX =    0.0                 !
 ! A6    A(4,1,5)              107.5252         -DE/DX =    0.0                 !
 ! A7    A(1,2,6)              108.1623         -DE/DX =    0.0                 !
 ! A8    A(1,2,7)              108.1623         -DE/DX =    0.0                 !
 ! A9    A(1,2,8)              108.1623         -DE/DX =    0.0                 !
 ! A10   A(6,2,7)              110.7477         -DE/DX =    0.0                 !
 ! A11   A(6,2,8)              110.7479         -DE/DX =    0.0                 !
 ! A12   A(7,2,8)              110.7479         -DE/DX =    0.0                 !
 ! D1    D(3,1,2,6)             59.9999         -DE/DX =    0.0                 !
 ! D2    D(3,1,2,7)            -59.9999         -DE/DX =    0.0                 !
 ! D3    D(3,1,2,8)            180.0            -DE/DX =    0.0                 !
 ! D4    D(4,1,2,6)            -59.9998         -DE/DX =    0.0                 !
 ! D5    D(4,1,2,7)           -179.9997         -DE/DX =    0.0                 !
 ! D6    D(4,1,2,8)             60.0002         -DE/DX =    0.0                 !
 ! D7    D(5,1,2,6)            179.9997         -DE/DX =    0.0                 !
 ! D8    D(5,1,2,7)             59.9998         -DE/DX =    0.0                 !
 ! D9    D(5,1,2,8)            -60.0002         -DE/DX =    0.0                 !
 --------------------------------------------------------------------------------
 Lowest energy point so far.  Saving SCF results.
 Largest change from initial coordinates is atom    1       0.000 Angstoms.
 GradGradGradGradGradGradGradGradGradGradGradGradGradGradGradGradGradGrad

 Leave Link  103 at Tue Sep 30 16:59:00 2025, MaxMem=  4294967296 cpu:               0.4 elap:               0.1
 (Enter /software/sse/easybuild/prefix/software/Gaussian/16.C.01-avx2-nsc1/g16/l202.exe)
                          Input orientation:                          
 ---------------------------------------------------------------------
 Center     Atomic      Atomic             Coordinates (Angstroms)
 Number     Number       Type             X           Y           Z
 ---------------------------------------------------------------------
      1          7           0        0.000000   -0.000000   -0.707160
      2          6           0        0.000000    0.000000    0.796120
      3          1           0       -0.000000    0.938450   -1.074060
      4          1           0       -0.812720   -0.469220   -1.074060
      5          1           0        0.812720   -0.469220   -1.074060
      6          1           0       -0.886340    0.511730    1.131870
      7          1           0        0.886340    0.511730    1.131870
      8          1           0        0.000000   -1.023460    1.131870
 ---------------------------------------------------------------------
                    Distance matrix (angstroms):
                    1          2          3          4          5
     1  N    0.000000
     2  C    1.503280   0.000000
     3  H    1.007623   2.092430   0.000000
     4  H    1.007619   2.092428   1.625438   0.000000
     5  H    1.007619   2.092428   1.625438   1.625440   0.000000
     6  H    2.104637   1.077123   2.415329   2.415328   2.952151
     7  H    2.104637   1.077123   2.415329   2.952151   2.415328
     8  H    2.104638   1.077125   2.952155   2.415331   2.415331
                    6          7          8
     6  H    0.000000
     7  H    1.772680   0.000000
     8  H    1.772684   1.772684   0.000000
 Stoichiometry    CH6N(1+)
 Framework group  CS[SG(CH2N),X(H4)]
 Deg. of freedom    11
 Full point group                 CS      NOp   2
 RotChk:  IX=0 Diff= 5.86D-12
 Largest Abelian subgroup         CS      NOp   2
 Largest concise Abelian subgroup CS      NOp   2
                         Standard orientation:                         
 ---------------------------------------------------------------------
 Center     Atomic      Atomic             Coordinates (Angstroms)
 Number     Number       Type             X           Y           Z
 ---------------------------------------------------------------------
      1          7           0       -0.000001    0.707162    0.000000
      2          6           0       -0.000001   -0.796118   -0.000000
      3          1           0        0.938449    1.074062   -0.000000
      4          1           0       -0.469221    1.074062    0.812720
      5          1           0       -0.469221    1.074062   -0.812720
      6          1           0        0.511729   -1.131868    0.886340
      7          1           0        0.511729   -1.131868   -0.886340
      8          1           0       -1.023461   -1.131868    0.000000
 ---------------------------------------------------------------------
 Rotational constants (GHZ):          86.6901426          20.3097674          20.3097641
 Leave Link  202 at Tue Sep 30 16:59:00 2025, MaxMem=  4294967296 cpu:               0.1 elap:               0.0
 (Enter /software/sse/easybuild/prefix/software/Gaussian/16.C.01-avx2-nsc1/g16/l9999.exe)

 Test job not archived.
 1\1\NSC-N1291\FOpt\RHF\Aug-CC-pVTZ\C1H6N1(1+)\X_DAVVA\30-Sep-2025\0\\#
 P HF/aug-cc-pvtz Opt=tight Pop=(MK,Hirshfeld) iop(6/33=2) iop(6/42=6) 
 maxdisk=128GB\\methylammonium\\1,1\N,0.,0.,-0.70716\C,0.,0.,0.79612\H,
 0.,0.93845,-1.07406\H,-0.81272,-0.46922,-1.07406\H,0.81272,-0.46922,-1
 .07406\H,-0.88634,0.51173,1.13187\H,0.88634,0.51173,1.13187\H,0.,-1.02
 346,1.13187\\Version=ES64L-G16RevC.01\State=1-A'\HF=-95.6192435\RMSD=1
 .011e-09\RMSF=1.330e-06\Dipole=0.,0.0000046,-0.8429215\Quadrupole=-0.8
 161225,-0.8161247,1.6322471,0.,0.,-0.0000104\PG=CS [SG(C1H2N1),X(H4)]\
 \@


 Just remember, when you're over the hill, you begin to pick up speed.
 -- Charles Schulz
 Job cpu time:       0 days  0 hours  1 minutes 38.3 seconds.
 Elapsed time:       0 days  0 hours  0 minutes  7.6 seconds.
 File lengths (MBytes):  RWF=     25 Int=      0 D2E=      0 Chk=      8 Scr=      1
 Normal termination of Gaussian 16 at Tue Sep 30 16:59:00 2025.
