 Entering Gaussian System, Link 0=/software/sse/easybuild/prefix/software/Gaussian/16.C.01-avx2-nsc1/g16/g16.orig
 Input=methylammonium.wrap
 Output=methylammonium.log
 Initial command:
 /software/sse/easybuild/prefix/software/Gaussian/16.C.01-avx2-nsc1/g16/l1.exe "/scratch/local/Gau-994282.inp" -scrdir="/scratch/local/"
 Entering Link 1 = /software/sse/easybuild/prefix/software/Gaussian/16.C.01-avx2-nsc1/g16/l1.exe PID=    994283.
  
 Copyright (c) 1988-2019, Gaussian, Inc.  All Rights Reserved.
  
 This is part of the Gaussian(R) 16 program.  It is based on
 the Gaussian(R) 09 system (copyright 2009, Gaussian, Inc.),
 the Gaussian(R) 03 system (copyright 2003, Gaussian, Inc.),
 the Gaussian(R) 98 system (copyright 1998, Gaussian, Inc.),
 the Gaussian(R) 94 system (copyright 1995, Gaussian, Inc.),
 the Gaussian 92(TM) system (copyright 1992, Gaussian, Inc.),
 the Gaussian 90(TM) system (copyright 1990, Gaussian, Inc.),
 the Gaussian 88(TM) system (copyright 1988, Gaussian, Inc.),
 the Gaussian 86(TM) system (copyright 1986, Carnegie Mellon
 University), and the Gaussian 82(TM) system (copyright 1983,
 Carnegie Mellon University). Gaussian is a federally registered
 trademark of Gaussian, Inc.
  
 This software contains proprietary and confidential information,
 including trade secrets, belonging to Gaussian, Inc.
  
 This software is provided under written license and may be
 used, copied, transmitted, or stored only in accord with that
 written license.
  
 The following legend is applicable only to US Government
 contracts under FAR:
  
                    RESTRICTED RIGHTS LEGEND
  
 Use, reproduction and disclosure by the US Government is
 subject to restrictions as set forth in subparagraphs (a)
 and (c) of the Commercial Computer Software - Restricted
 Rights clause in FAR 52.227-19.
  
 Gaussian, Inc.
 340 Quinnipiac St., Bldg. 40, Wallingford CT 06492
  
  
 ---------------------------------------------------------------
 Warning -- This program may not be used in any manner that
 competes with the business of Gaussian, Inc. or will provide
 assistance to any competitor of Gaussian, Inc.  The licensee
 of this program is prohibited from giving any competitor of
 Gaussian, Inc. access to this program.  By using this program,
 the user acknowledges that Gaussian, Inc. is engaged in the
 business of creating and licensing software in the field of
 computational chemistry and represents and warrants to the
 licensee that it is not a competitor of Gaussian, Inc. and that
 it will not use this program in any manner prohibited above.
 ---------------------------------------------------------------
  

 Cite this work as:
 Gaussian 16, Revision C.01,
 M. J. Frisch, G. W. Trucks, H. B. Schlegel, G. E. Scuseria, 
 M. A. Robb, J. R. Cheeseman, G. Scalmani, V. Barone, 
 G. A. Petersson, H. Nakatsuji, X. Li, M. Caricato, A. V. Marenich, 
 J. Bloino, B. G. Janesko, R. Gomperts, B. Mennucci, H. P. Hratchian, 
 J. V. Ortiz, A. F. Izmaylov, J. L. Sonnenberg, D. Williams-Young, 
 F. Ding, F. Lipparini, F. Egidi, J. Goings, B. Peng, A. Petrone, 
 T. Henderson, D. Ranasinghe, V. G. Zakrzewski, J. Gao, N. Rega, 
 G. Zheng, W. Liang, M. Hada, M. Ehara, K. Toyota, R. Fukuda, 
 J. Hasegawa, M. Ishida, T. Nakajima, Y. Honda, O. Kitao, H. Nakai, 
 T. Vreven, K. Throssell, J. A. Montgomery, Jr., J. E. Peralta, 
 F. Ogliaro, M. J. Bearpark, J. J. Heyd, E. N. Brothers, K. N. Kudin, 
 V. N. Staroverov, T. A. Keith, R. Kobayashi, J. Normand, 
 K. Raghavachari, A. P. Rendell, J. C. Burant, S. S. Iyengar, 
 J. Tomasi, M. Cossi, J. M. Millam, M. Klene, C. Adamo, R. Cammi, 
 J. W. Ochterski, R. L. Martin, K. Morokuma, O. Farkas, 
 J. B. Foresman, and D. J. Fox, Gaussian, Inc., Wallingford CT, 2019.
 
 ******************************************
 Gaussian 16:  ES64L-G16RevC.01  3-Jul-2019
                28-Sep-2025 
 ******************************************
 %mem=12000MB
 %nprocshared=8
 Will use up to    8 processors via shared memory.
 %chk=water19.chk
 ----------------------------------------------------------------------
 #P HF/aug-cc-pvtz Opt=(Redundant, calcall, verytight) symm=(loose,foll
 ow) Pop=(MK,Hirshfeld,ReadRadii) iop(6/33=2) iop(6/42=6) Polar Freq ma
 xdisk=128GB
 ----------------------------------------------------------------------
 1/7=1,10=4,18=20,19=15,38=1/1,3;
 2/9=110,12=2,17=4,18=3,40=1/2;
 3/5=16,6=1,7=10,11=9,25=1,30=1,71=2,140=1/1,2,3;
 4//1;
 5/5=2,38=5,98=1/2;
 8/6=4,10=90,11=11/1;
 11/6=1,8=1,9=11,15=111,16=1/1,2,10;
 10/6=1/2;
 6/7=2,8=2,9=2,10=2,15=8,18=1,20=101,28=1,33=2,42=6,79=1/1,2;
 7/10=1,25=1/1,2,3,16;
 1/7=1,10=4,18=20,19=15/3(3);
 2/9=110,15=5/2;
 7/8=1,9=1,25=1,44=-1/16;
 99//99;
 2/9=110,15=5/2;
 3/5=16,6=1,7=10,11=9,25=1,30=1,71=2,140=1/1,2,3;
 4/5=5,16=3,69=1/1;
 5/5=2,38=5,98=1/2;
 8/6=4,10=90,11=11/1;
 11/6=1,8=1,9=11,15=111,16=1/1,2,10;
 10/6=1/2;
 7/10=1,25=1/1,2,3,16;
 1/7=1,10=4,18=20,19=15/3(-8);
 2/9=110,15=5/2;
 6/7=2,8=2,9=2,10=2,15=8,18=1,19=2,20=101,28=1,33=2,42=6,79=1/1,2;
 7/8=1,9=1,25=1,44=-1/16;
 99//99;
 Leave Link    1 at Sun Sep 28 21:01:52 2025, MaxMem=  1572864000 cpu:               0.5 elap:               0.1
 (Enter /software/sse/easybuild/prefix/software/Gaussian/16.C.01-avx2-nsc1/g16/l101.exe)
 --------------
 methylammonium
 --------------
 Symbolic Z-matrix:
 Charge =  1 Multiplicity = 1
 N                    -0.71079   0.00008  -0.06697 
 C                     0.81021  -0.00012   0.07634 
 H                    -1.02026  -0.74796  -0.69229 
 H                    -1.043     0.88814  -0.4507 
 H                    -1.16443  -0.14008   0.83922 
 H                     1.2476    0.15105  -0.90513 
 H                     1.11672  -0.95703   0.48498 
 H                     1.09222   0.80615   0.74543 
 
 ITRead=  0  0  0  0  0  0  0  0
 MicOpt= -1 -1 -1 -1 -1 -1 -1 -1
 NAtoms=      8 NQM=        8 NQMF=       0 NMMI=      0 NMMIF=      0
                NMic=       0 NMicF=      0.
                    Isotopes and Nuclear Properties:
 (Nuclear quadrupole moments (NQMom) in fm**2, nuclear magnetic moments (NMagM)
  in nuclear magnetons)

  Atom         1           2           3           4           5           6           7           8
 IAtWgt=          14          12           1           1           1           1           1           1
 AtmWgt=  14.0030740  12.0000000   1.0078250   1.0078250   1.0078250   1.0078250   1.0078250   1.0078250
 NucSpn=           2           0           1           1           1           1           1           1
 AtZEff=  -0.0000000  -0.0000000  -0.0000000  -0.0000000  -0.0000000  -0.0000000  -0.0000000  -0.0000000
 NQMom=    2.0440000   0.0000000   0.0000000   0.0000000   0.0000000   0.0000000   0.0000000   0.0000000
 NMagM=    0.4037610   0.0000000   2.7928460   2.7928460   2.7928460   2.7928460   2.7928460   2.7928460
 AtZNuc=   7.0000000   6.0000000   1.0000000   1.0000000   1.0000000   1.0000000   1.0000000   1.0000000
 Leave Link  101 at Sun Sep 28 21:01:52 2025, MaxMem=  1572864000 cpu:               1.8 elap:               0.2
 (Enter /software/sse/easybuild/prefix/software/Gaussian/16.C.01-avx2-nsc1/g16/l103.exe)

 GradGradGradGradGradGradGradGradGradGradGradGradGradGradGradGradGradGrad
 Berny optimization.
 Initialization pass.
                           ----------------------------
                           !    Initial Parameters    !
                           ! (Angstroms and Degrees)  !
 --------------------------                            --------------------------
 ! Name  Definition              Value          Derivative Info.                !
 --------------------------------------------------------------------------------
 ! R1    R(1,2)                  1.5277         calculate D2E/DX2 analytically  !
 ! R2    R(1,3)                  1.0229         calculate D2E/DX2 analytically  !
 ! R3    R(1,4)                  1.0229         calculate D2E/DX2 analytically  !
 ! R4    R(1,5)                  1.023          calculate D2E/DX2 analytically  !
 ! R5    R(2,6)                  1.0851         calculate D2E/DX2 analytically  !
 ! R6    R(2,7)                  1.0847         calculate D2E/DX2 analytically  !
 ! R7    R(2,8)                  1.085          calculate D2E/DX2 analytically  !
 ! A1    A(2,1,3)              111.0052         calculate D2E/DX2 analytically  !
 ! A2    A(2,1,4)              111.0176         calculate D2E/DX2 analytically  !
 ! A3    A(2,1,5)              110.9995         calculate D2E/DX2 analytically  !
 ! A4    A(3,1,4)              107.897          calculate D2E/DX2 analytically  !
 ! A5    A(3,1,5)              107.8874         calculate D2E/DX2 analytically  !
 ! A6    A(4,1,5)              107.8925         calculate D2E/DX2 analytically  !
 ! A7    A(1,2,6)              108.4477         calculate D2E/DX2 analytically  !
 ! A8    A(1,2,7)              108.4679         calculate D2E/DX2 analytically  !
 ! A9    A(1,2,8)              108.4521         calculate D2E/DX2 analytically  !
 ! A10   A(6,2,7)              110.4714         calculate D2E/DX2 analytically  !
 ! A11   A(6,2,8)              110.4558         calculate D2E/DX2 analytically  !
 ! A12   A(7,2,8)              110.4743         calculate D2E/DX2 analytically  !
 ! D1    D(3,1,2,6)             60.0187         calculate D2E/DX2 analytically  !
 ! D2    D(3,1,2,7)            -59.9886         calculate D2E/DX2 analytically  !
 ! D3    D(3,1,2,8)            179.9981         calculate D2E/DX2 analytically  !
 ! D4    D(4,1,2,6)            -59.9926         calculate D2E/DX2 analytically  !
 ! D5    D(4,1,2,7)           -179.9998         calculate D2E/DX2 analytically  !
 ! D6    D(4,1,2,8)             59.9868         calculate D2E/DX2 analytically  !
 ! D7    D(5,1,2,6)           -179.9943         calculate D2E/DX2 analytically  !
 ! D8    D(5,1,2,7)             59.9984         calculate D2E/DX2 analytically  !
 ! D9    D(5,1,2,8)            -60.0149         calculate D2E/DX2 analytically  !
 --------------------------------------------------------------------------------
 Trust Radius=3.00D-01 FncErr=1.00D-07 GrdErr=1.00D-07 EigMax=2.50D+02 EigMin=1.00D-04
 Number of steps in this run=     38 maximum allowed number of steps=    100.
 GradGradGradGradGradGradGradGradGradGradGradGradGradGradGradGradGradGrad

 Leave Link  103 at Sun Sep 28 21:01:52 2025, MaxMem=  1572864000 cpu:               0.1 elap:               0.0
 (Enter /software/sse/easybuild/prefix/software/Gaussian/16.C.01-avx2-nsc1/g16/l202.exe)
                          Input orientation:                          
 ---------------------------------------------------------------------
 Center     Atomic      Atomic             Coordinates (Angstroms)
 Number     Number       Type             X           Y           Z
 ---------------------------------------------------------------------
      1          7           0       -0.710788    0.000081   -0.066969
      2          6           0        0.810214   -0.000117    0.076341
      3          1           0       -1.020258   -0.747956   -0.692287
      4          1           0       -1.042999    0.888140   -0.450700
      5          1           0       -1.164428   -0.140078    0.839218
      6          1           0        1.247597    0.151045   -0.905131
      7          1           0        1.116720   -0.957034    0.484976
      8          1           0        1.092222    0.806151    0.745430
 ---------------------------------------------------------------------
                    Distance matrix (angstroms):
                    1          2          3          4          5
     1  N    0.000000
     2  C    1.527739   0.000000
     3  H    1.022914   2.121481   0.000000
     4  H    1.022869   2.121597   1.653992   0.000000
     5  H    1.023039   2.121505   1.654028   1.654045   0.000000
     6  H    2.135551   1.085099   2.448810   2.448805   2.990881
     7  H    2.135533   1.084720   2.448742   2.990743   2.448784
     8  H    2.135553   1.085024   2.990794   2.448799   2.448798
                    6          7          8
     6  H    0.000000
     7  H    1.782517   0.000000
     8  H    1.782598   1.782486   0.000000
 This structure is nearly, but not quite of a higher symmetry.
 Consider Symm=Loose if the higher symmetry is desired.
 Stoichiometry    CH6N(1+)
 Framework group  C1[X(CH6N)]
 Deg. of freedom    18
 Full point group                 C1      NOp   1
 Largest Abelian subgroup         C1      NOp   1
 Largest concise Abelian subgroup C1      NOp   1
                         Standard orientation:                         
 ---------------------------------------------------------------------
 Center     Atomic      Atomic             Coordinates (Angstroms)
 Number     Number       Type             X           Y           Z
 ---------------------------------------------------------------------
      1          7           0       -0.717259   -0.005924   -0.062434
      2          6           0        0.804677    0.006638    0.070002
      3          1           0       -1.022113    0.578965   -0.844305
      4          1           0       -1.162405    0.348549    0.787539
      5          1           0       -1.063193   -0.954673   -0.226183
      6          1           0        1.125942    1.028701    0.242096
      7          1           0        1.232843   -0.375745   -0.850364
      8          1           0        1.081674   -0.624158    0.908242
 ---------------------------------------------------------------------
 Rotational constants (GHZ):          84.8024506          19.7071784          19.7069464
 Leave Link  202 at Sun Sep 28 21:01:52 2025, MaxMem=  1572864000 cpu:               0.0 elap:               0.0
 (Enter /software/sse/easybuild/prefix/software/Gaussian/16.C.01-avx2-nsc1/g16/l301.exe)
 Standard basis: Aug-CC-pVTZ (5D, 7F)
 Ernie: Thresh=  0.10000D-02 Tol=  0.10000D-05 Strict=F.
 Ernie:  6 primitive shells out of 126 were deleted.
 There are   260 symmetry adapted cartesian basis functions of A   symmetry.
 There are   230 symmetry adapted basis functions of A   symmetry.
   230 basis functions,   306 primitive gaussians,   260 cartesian basis functions
     9 alpha electrons        9 beta electrons
       nuclear repulsion energy        47.5620990796 Hartrees.
 IExCor=    0 DFT=F Ex=HF Corr=None ExCW=0 ScaHFX=  1.000000
 ScaDFX=  1.000000  1.000000  1.000000  1.000000 ScalE2=  1.000000  1.000000
 IRadAn=      5 IRanWt=     -1 IRanGd=            0 ICorTp=0 IEmpDi=  4
 NAtoms=    8 NActive=    8 NUniq=    8 SFac= 1.00D+00 NAtFMM=   60 NAOKFM=F Big=F
 Integral buffers will be    131072 words long.
 Raffenetti 1 integral format.
 Two-electron integral symmetry is turned on.
 Leave Link  301 at Sun Sep 28 21:01:53 2025, MaxMem=  1572864000 cpu:               0.4 elap:               0.1
 (Enter /software/sse/easybuild/prefix/software/Gaussian/16.C.01-avx2-nsc1/g16/l302.exe)
 NPDir=0 NMtPBC=     1 NCelOv=     1 NCel=       1 NClECP=     1 NCelD=      1
         NCelK=      1 NCelE2=     1 NClLst=     1 CellRange=     0.0.
 One-electron integrals computed using PRISM.
 One-electron integral symmetry used in STVInt
 NBasis=   230 RedAO= T EigKep=  3.34D-05  NBF=   230
 NBsUse=   230 1.00D-06 EigRej= -1.00D+00 NBFU=   230
 Leave Link  302 at Sun Sep 28 21:01:53 2025, MaxMem=  1572864000 cpu:               0.9 elap:               0.1
 (Enter /software/sse/easybuild/prefix/software/Gaussian/16.C.01-avx2-nsc1/g16/l303.exe)
 DipDrv:  MaxL=1.
 Leave Link  303 at Sun Sep 28 21:01:54 2025, MaxMem=  1572864000 cpu:               0.2 elap:               0.0
 (Enter /software/sse/easybuild/prefix/software/Gaussian/16.C.01-avx2-nsc1/g16/l401.exe)
 ExpMin= 2.53D-02 ExpMax= 1.14D+04 ExpMxC= 3.89D+02 IAcc=3 IRadAn=         5 AccDes= 0.00D+00
 Harris functional with IExCor=  205 and IRadAn=       5 diagonalized for initial guess.
 HarFok:  IExCor=  205 AccDes= 0.00D+00 IRadAn=         5 IDoV= 1 UseB2=F ITyADJ=14
 ICtDFT=  3500011 ScaDFX=  1.000000  1.000000  1.000000  1.000000
 FoFCou: FMM=F IPFlag=           0 FMFlag=      100000 FMFlg1=           0
         NFxFlg=           0 DoJE=T BraDBF=F KetDBF=T FulRan=T
         wScrn=  0.000000 ICntrl=       500 IOpCl=  0 I1Cent=   200000004 NGrid=           0
         NMat0=    1 NMatS0=      1 NMatT0=    0 NMatD0=    1 NMtDS0=    0 NMtDT0=    0
 Petite list used in FoFCou.
 Harris En= -95.8717519607492    
 JPrj=0 DoOrth=F DoCkMO=F.
 Leave Link  401 at Sun Sep 28 21:01:54 2025, MaxMem=  1572864000 cpu:               2.3 elap:               0.3
 (Enter /software/sse/easybuild/prefix/software/Gaussian/16.C.01-avx2-nsc1/g16/l502.exe)
 Keep R1 ints in memory in canonical form, NReq=361753911.
 FoFCou: FMM=F IPFlag=           0 FMFlag=           0 FMFlg1=           0
         NFxFlg=           0 DoJE=F BraDBF=F KetDBF=F FulRan=T
         wScrn=  0.000000 ICntrl=       600 IOpCl=  0 I1Cent=           0 NGrid=           0
         NMat0=    1 NMatS0=  26565 NMatT0=    0 NMatD0=    1 NMtDS0=    0 NMtDT0=    0
 Symmetry not used in FoFCou.
 Two-electron integral symmetry not used.
 Closed shell SCF:
 Using DIIS extrapolation, IDIIS=  1040.
 NGot=  1572864000 LenX=  1219861355 LenY=  1219793314
 Requested convergence on RMS density matrix=1.00D-08 within 128 cycles.
 Requested convergence on MAX density matrix=1.00D-06.
 Requested convergence on             energy=1.00D-06.
 No special actions if energy rises.

 Cycle   1  Pass 1  IDiag  1:
 E= -95.5240559295442    
 DIIS: error= 4.09D-02 at cycle   1 NSaved=   1.
 NSaved= 1 IEnMin= 1 EnMin= -95.5240559295442     IErMin= 1 ErrMin= 4.09D-02
 ErrMax= 4.09D-02  0.00D+00 EMaxC= 1.00D-01 BMatC= 2.05D-01 BMatP= 2.05D-01
 IDIUse=3 WtCom= 5.91D-01 WtEn= 4.09D-01
 Coeff-Com:  0.100D+01
 Coeff-En:   0.100D+01
 Coeff:      0.100D+01
 Gap=     0.629 Goal=   None    Shift=    0.000
 GapD=    0.629 DampG=2.000 DampE=0.500 DampFc=1.0000 IDamp=-1.
 RMSDP=1.33D-03 MaxDP=6.01D-02              OVMax= 9.40D-02

 Cycle   2  Pass 1  IDiag  1:
 E= -95.6079839852700     Delta-E=       -0.083928055726 Rises=F Damp=F
 DIIS: error= 1.01D-02 at cycle   2 NSaved=   2.
 NSaved= 2 IEnMin= 2 EnMin= -95.6079839852700     IErMin= 2 ErrMin= 1.01D-02
 ErrMax= 1.01D-02  0.00D+00 EMaxC= 1.00D-01 BMatC= 1.21D-02 BMatP= 2.05D-01
 IDIUse=3 WtCom= 8.99D-01 WtEn= 1.01D-01
 Coeff-Com:  0.927D-01 0.907D+00
 Coeff-En:   0.000D+00 0.100D+01
 Coeff:      0.834D-01 0.917D+00
 Gap=     0.674 Goal=   None    Shift=    0.000
 RMSDP=4.12D-04 MaxDP=1.94D-02 DE=-8.39D-02 OVMax= 3.19D-02

 Cycle   3  Pass 1  IDiag  1:
 E= -95.6171036841078     Delta-E=       -0.009119698838 Rises=F Damp=F
 DIIS: error= 2.65D-03 at cycle   3 NSaved=   3.
 NSaved= 3 IEnMin= 3 EnMin= -95.6171036841078     IErMin= 3 ErrMin= 2.65D-03
 ErrMax= 2.65D-03  0.00D+00 EMaxC= 1.00D-01 BMatC= 1.08D-03 BMatP= 1.21D-02
 IDIUse=3 WtCom= 9.73D-01 WtEn= 2.65D-02
 Coeff-Com: -0.234D-01 0.186D+00 0.837D+00
 Coeff-En:   0.000D+00 0.000D+00 0.100D+01
 Coeff:     -0.228D-01 0.181D+00 0.841D+00
 Gap=     0.656 Goal=   None    Shift=    0.000
 RMSDP=8.84D-05 MaxDP=4.19D-03 DE=-9.12D-03 OVMax= 7.59D-03

 Cycle   4  Pass 1  IDiag  1:
 E= -95.6180948958606     Delta-E=       -0.000991211753 Rises=F Damp=F
 DIIS: error= 6.68D-04 at cycle   4 NSaved=   4.
 NSaved= 4 IEnMin= 4 EnMin= -95.6180948958606     IErMin= 4 ErrMin= 6.68D-04
 ErrMax= 6.68D-04  0.00D+00 EMaxC= 1.00D-01 BMatC= 2.39D-05 BMatP= 1.08D-03
 IDIUse=3 WtCom= 9.93D-01 WtEn= 6.68D-03
 Coeff-Com: -0.784D-03-0.219D-01-0.157D-01 0.104D+01
 Coeff-En:   0.000D+00 0.000D+00 0.000D+00 0.100D+01
 Coeff:     -0.778D-03-0.218D-01-0.156D-01 0.104D+01
 Gap=     0.656 Goal=   None    Shift=    0.000
 RMSDP=2.47D-05 MaxDP=1.17D-03 DE=-9.91D-04 OVMax= 3.43D-03

 Cycle   5  Pass 1  IDiag  1:
 E= -95.6181358590075     Delta-E=       -0.000040963147 Rises=F Damp=F
 DIIS: error= 1.90D-04 at cycle   5 NSaved=   5.
 NSaved= 5 IEnMin= 5 EnMin= -95.6181358590075     IErMin= 5 ErrMin= 1.90D-04
 ErrMax= 1.90D-04  0.00D+00 EMaxC= 1.00D-01 BMatC= 4.08D-06 BMatP= 2.39D-05
 IDIUse=3 WtCom= 9.98D-01 WtEn= 1.90D-03
 Coeff-Com:  0.224D-02-0.240D-01-0.919D-01 0.146D+00 0.968D+00
 Coeff-En:   0.000D+00 0.000D+00 0.000D+00 0.000D+00 0.100D+01
 Coeff:      0.224D-02-0.239D-01-0.918D-01 0.146D+00 0.968D+00
 Gap=     0.657 Goal=   None    Shift=    0.000
 RMSDP=9.51D-06 MaxDP=3.46D-04 DE=-4.10D-05 OVMax= 8.40D-04

 Cycle   6  Pass 1  IDiag  1:
 E= -95.6181423258205     Delta-E=       -0.000006466813 Rises=F Damp=F
 DIIS: error= 7.77D-05 at cycle   6 NSaved=   6.
 NSaved= 6 IEnMin= 6 EnMin= -95.6181423258205     IErMin= 6 ErrMin= 7.77D-05
 ErrMax= 7.77D-05  0.00D+00 EMaxC= 1.00D-01 BMatC= 2.16D-07 BMatP= 4.08D-06
 IDIUse=1 WtCom= 1.00D+00 WtEn= 0.00D+00
 Coeff-Com:  0.378D-03-0.127D-02-0.911D-02-0.711D-01 0.712D-01 0.101D+01
 Coeff:      0.378D-03-0.127D-02-0.911D-02-0.711D-01 0.712D-01 0.101D+01
 Gap=     0.657 Goal=   None    Shift=    0.000
 RMSDP=2.37D-06 MaxDP=1.24D-04 DE=-6.47D-06 OVMax= 3.95D-04

 Cycle   7  Pass 1  IDiag  1:
 E= -95.6181427364416     Delta-E=       -0.000000410621 Rises=F Damp=F
 DIIS: error= 1.00D-05 at cycle   7 NSaved=   7.
 NSaved= 7 IEnMin= 7 EnMin= -95.6181427364416     IErMin= 7 ErrMin= 1.00D-05
 ErrMax= 1.00D-05  0.00D+00 EMaxC= 1.00D-01 BMatC= 8.75D-09 BMatP= 2.16D-07
 IDIUse=1 WtCom= 1.00D+00 WtEn= 0.00D+00
 Coeff-Com: -0.177D-03 0.146D-02 0.654D-02 0.979D-02-0.641D-01-0.225D+00
 Coeff-Com:  0.127D+01
 Coeff:     -0.177D-03 0.146D-02 0.654D-02 0.979D-02-0.641D-01-0.225D+00
 Coeff:      0.127D+01
 Gap=     0.657 Goal=   None    Shift=    0.000
 RMSDP=5.84D-07 MaxDP=2.49D-05 DE=-4.11D-07 OVMax= 7.16D-05

 Cycle   8  Pass 1  IDiag  1:
 E= -95.6181427569635     Delta-E=       -0.000000020522 Rises=F Damp=F
 DIIS: error= 1.81D-06 at cycle   8 NSaved=   8.
 NSaved= 8 IEnMin= 8 EnMin= -95.6181427569635     IErMin= 8 ErrMin= 1.81D-06
 ErrMax= 1.81D-06  0.00D+00 EMaxC= 1.00D-01 BMatC= 2.60D-10 BMatP= 8.75D-09
 IDIUse=1 WtCom= 1.00D+00 WtEn= 0.00D+00
 Coeff-Com:  0.196D-04-0.199D-03-0.107D-02-0.510D-03 0.105D-01 0.256D-01
 Coeff-Com: -0.305D+00 0.127D+01
 Coeff:      0.196D-04-0.199D-03-0.107D-02-0.510D-03 0.105D-01 0.256D-01
 Coeff:     -0.305D+00 0.127D+01
 Gap=     0.657 Goal=   None    Shift=    0.000
 RMSDP=1.22D-07 MaxDP=3.71D-06 DE=-2.05D-08 OVMax= 1.39D-05

 Cycle   9  Pass 1  IDiag  1:
 E= -95.6181427575938     Delta-E=       -0.000000000630 Rises=F Damp=F
 DIIS: error= 2.58D-07 at cycle   9 NSaved=   9.
 NSaved= 9 IEnMin= 9 EnMin= -95.6181427575938     IErMin= 9 ErrMin= 2.58D-07
 ErrMax= 2.58D-07  0.00D+00 EMaxC= 1.00D-01 BMatC= 4.26D-12 BMatP= 2.60D-10
 IDIUse=1 WtCom= 1.00D+00 WtEn= 0.00D+00
 Coeff-Com: -0.834D-06 0.178D-04 0.987D-04-0.231D-03-0.941D-03 0.204D-02
 Coeff-Com:  0.291D-01-0.258D+00 0.123D+01
 Coeff:     -0.834D-06 0.178D-04 0.987D-04-0.231D-03-0.941D-03 0.204D-02
 Coeff:      0.291D-01-0.258D+00 0.123D+01
 Gap=     0.657 Goal=   None    Shift=    0.000
 RMSDP=1.79D-08 MaxDP=6.84D-07 DE=-6.30D-10 OVMax= 1.68D-06

 Cycle  10  Pass 1  IDiag  1:
 E= -95.6181427576041     Delta-E=       -0.000000000010 Rises=F Damp=F
 DIIS: error= 1.43D-08 at cycle  10 NSaved=  10.
 NSaved=10 IEnMin=10 EnMin= -95.6181427576041     IErMin=10 ErrMin= 1.43D-08
 ErrMax= 1.43D-08  0.00D+00 EMaxC= 1.00D-01 BMatC= 2.32D-14 BMatP= 4.26D-12
 IDIUse=1 WtCom= 1.00D+00 WtEn= 0.00D+00
 Coeff-Com: -0.125D-06 0.557D-06 0.133D-05 0.210D-04-0.145D-04-0.468D-03
 Coeff-Com: -0.680D-04 0.152D-01-0.140D+00 0.112D+01
 Coeff:     -0.125D-06 0.557D-06 0.133D-05 0.210D-04-0.145D-04-0.468D-03
 Coeff:     -0.680D-04 0.152D-01-0.140D+00 0.112D+01
 Gap=     0.657 Goal=   None    Shift=    0.000
 RMSDP=1.08D-09 MaxDP=3.78D-08 DE=-1.03D-11 OVMax= 1.16D-07

 SCF Done:  E(RHF) =  -95.6181427576     A.U. after   10 cycles
            NFock= 10  Conv=0.11D-08     -V/T= 2.0021
 KE= 9.541953109647D+01 PE=-3.127860606343D+02 EE= 7.418628770061D+01
 Leave Link  502 at Sun Sep 28 21:02:01 2025, MaxMem=  1572864000 cpu:              21.6 elap:               6.3
 (Enter /software/sse/easybuild/prefix/software/Gaussian/16.C.01-avx2-nsc1/g16/l801.exe)
 Range of M.O.s used for correlation:     1   230
 NBasis=   230 NAE=     9 NBE=     9 NFC=     0 NFV=     0
 NROrb=    230 NOA=     9 NOB=     9 NVA=   221 NVB=   221

 **** Warning!!: The largest alpha MO coefficient is  0.52877015D+02

 Leave Link  801 at Sun Sep 28 21:02:01 2025, MaxMem=  1572864000 cpu:               0.1 elap:               0.0
 (Enter /software/sse/easybuild/prefix/software/Gaussian/16.C.01-avx2-nsc1/g16/l1101.exe)
 Using compressed storage, NAtomX=     8.
 Will process      9 centers per pass.
 Leave Link 1101 at Sun Sep 28 21:02:01 2025, MaxMem=  1572864000 cpu:               1.0 elap:               0.1
 (Enter /software/sse/easybuild/prefix/software/Gaussian/16.C.01-avx2-nsc1/g16/l1102.exe)
 Symmetrizing basis deriv contribution to polar:
 IMax=3 JMax=2 DiffMx= 0.00D+00
 Leave Link 1102 at Sun Sep 28 21:02:01 2025, MaxMem=  1572864000 cpu:               0.2 elap:               0.0
 (Enter /software/sse/easybuild/prefix/software/Gaussian/16.C.01-avx2-nsc1/g16/l1110.exe)
 Forming Gx(P) for the SCF density, NAtomX=     8.
 Integral derivatives from FoFJK, PRISM(SPDF).
 Do as many integral derivatives as possible in FoFJK.
 G2DrvN: MDV=    1572863040.
 G2DrvN: will do     9 centers at a time, making    1 passes.
 Calling FoFCou, ICntrl=  3107 FMM=F I1Cent=   0 AccDes= 0.00D+00.
 FoFJK:  IHMeth= 1 ICntrl=    3107 DoSepK=F KAlg= 0 I1Cent=           0 FoldK=F
 IRaf=         0 NMat=       1 IRICut=       1 DoRegI=T DoRafI=F ISym2E= 0 IDoP0=0 IntGTp=1.
 FoFCou: FMM=F IPFlag=           0 FMFlag=      100000 FMFlg1=           0
         NFxFlg=           0 DoJE=F BraDBF=F KetDBF=F FulRan=T
         wScrn=  0.000000 ICntrl=      3107 IOpCl=  0 I1Cent=           0 NGrid=           0
         NMat0=    1 NMatS0=      1 NMatT0=    0 NMatD0=    1 NMtDS0=    0 NMtDT0=    0
 Symmetry not used in FoFCou.
 End of G2Drv F.D. properties file   721 does not exist.
 End of G2Drv F.D. properties file   722 does not exist.
 End of G2Drv F.D. properties file   788 does not exist.
 Leave Link 1110 at Sun Sep 28 21:02:09 2025, MaxMem=  1572864000 cpu:              62.0 elap:               7.8
 (Enter /software/sse/easybuild/prefix/software/Gaussian/16.C.01-avx2-nsc1/g16/l1002.exe)
 Minotr:  Closed shell wavefunction.
          IDoAtm=11111111
          Direct CPHF calculation.
          Differentiating once with respect to electric field.
                with respect to dipole field.
          Differentiating once with respect to nuclear coordinates.
          Requested convergence is 1.0D-08 RMS, and 1.0D-07 maximum.
          Secondary convergence is 1.0D-12 RMS, and 1.0D-12 maximum.
          NewPWx=T KeepS1=F KeepF1=F KeepIn=T MapXYZ=F SortEE=F KeepMc=T.
 Keep R1 ints in memory in canonical form, NReq=361755477.
 FoFCou: FMM=F IPFlag=           0 FMFlag=           0 FMFlg1=           0
         NFxFlg=           0 DoJE=F BraDBF=F KetDBF=F FulRan=T
         wScrn=  0.000000 ICntrl=       600 IOpCl=  0 I1Cent=           0 NGrid=           0
         NMat0=    1 NMatS0=  26565 NMatT0=    0 NMatD0=    1 NMtDS0=    0 NMtDT0=    0
 Symmetry not used in FoFCou.
 Two-electron integral symmetry not used.
          MDV=    1572864000 using IRadAn=       1.
          Solving linear equations simultaneously, MaxMat=       0.
          There are    27 degrees of freedom in the 1st order CPHF.  IDoFFX=6 NUNeed=     3.
     24 vectors produced by pass  0 Test12= 7.37D-15 3.70D-09 XBig12= 4.41D+00 7.77D-01.
 AX will form    24 AO Fock derivatives at one time.
     24 vectors produced by pass  1 Test12= 7.37D-15 3.70D-09 XBig12= 6.83D-02 4.87D-02.
     24 vectors produced by pass  2 Test12= 7.37D-15 3.70D-09 XBig12= 5.81D-04 4.76D-03.
     24 vectors produced by pass  3 Test12= 7.37D-15 3.70D-09 XBig12= 5.96D-06 4.41D-04.
     24 vectors produced by pass  4 Test12= 7.37D-15 3.70D-09 XBig12= 3.62D-08 4.11D-05.
     24 vectors produced by pass  5 Test12= 7.37D-15 3.70D-09 XBig12= 1.41D-10 2.26D-06.
     11 vectors produced by pass  6 Test12= 7.37D-15 3.70D-09 XBig12= 5.20D-13 1.45D-07.
      3 vectors produced by pass  7 Test12= 7.37D-15 3.70D-09 XBig12= 1.84D-15 7.23D-09.
 InvSVY:  IOpt=1 It=  1 EMax= 4.44D-16
 Solved reduced A of dimension   158 with    27 vectors.
 FullF1:  Do perturbations      1 to       3.
 Isotropic polarizability for W=    0.000000       19.73 Bohr**3.
 End of Minotr F.D. properties file   721 does not exist.
 End of Minotr F.D. properties file   722 does not exist.
 End of Minotr F.D. properties file   788 does not exist.
 Leave Link 1002 at Sun Sep 28 21:02:16 2025, MaxMem=  1572864000 cpu:              56.7 elap:               7.1
 (Enter /software/sse/easybuild/prefix/software/Gaussian/16.C.01-avx2-nsc1/g16/l601.exe)
 Copying SCF densities to generalized density rwf, IOpCl= 0 IROHF=0.
 SCF density gives NOpUse=  1 NOpAll=  1.

 **********************************************************************

            Population analysis using the SCF Density.

 **********************************************************************

 Orbital symmetries:
 BldTbl:  Degeneracy threshold= 1.00D-02
       Occupied  (A) (A) (A) (A) (A) (A) (A) (A) (A)
       Virtual   (A) (A) (A) (A) (A) (A) (A) (A) (A) (A) (A) (A)
                 (A) (A) (A) (A) (A) (A) (A) (A) (A) (A) (A) (A)
                 (A) (A) (A) (A) (A) (A) (A) (A) (A) (A) (A) (A)
                 (A) (A) (A) (A) (A) (A) (A) (A) (A) (A) (A) (A)
                 (A) (A) (A) (A) (A) (A) (A) (A) (A) (A) (A) (A)
                 (A) (A) (A) (A) (A) (A) (A) (A) (A) (A) (A) (A)
                 (A) (A) (A) (A) (A) (A) (A) (A) (A) (A) (A) (A)
                 (A) (A) (A) (A) (A) (A) (A) (A) (A) (A) (A) (A)
                 (A) (A) (A) (A) (A) (A) (A) (A) (A) (A) (A) (A)
                 (A) (A) (A) (A) (A) (A) (A) (A) (A) (A) (A) (A)
                 (A) (A) (A) (A) (A) (A) (A) (A) (A) (A) (A) (A)
                 (A) (A) (A) (A) (A) (A) (A) (A) (A) (A) (A) (A)
                 (A) (A) (A) (A) (A) (A) (A) (A) (A) (A) (A) (A)
                 (A) (A) (A) (A) (A) (A) (A) (A) (A) (A) (A) (A)
                 (A) (A) (A) (A) (A) (A) (A) (A) (A) (A) (A) (A)
                 (A) (A) (A) (A) (A) (A) (A) (A) (A) (A) (A) (A)
                 (A) (A) (A) (A) (A) (A) (A) (A) (A) (A) (A) (A)
                 (A) (A) (A) (A) (A) (A) (A) (A) (A) (A) (A) (A)
                 (A) (A) (A) (A) (A)
 The electronic state is 1-A.
 Alpha  occ. eigenvalues --  -15.91121 -11.49344  -1.52123  -1.17516  -0.98365
 Alpha  occ. eigenvalues --   -0.98358  -0.86018  -0.78433  -0.78420
 Alpha virt. eigenvalues --   -0.12746  -0.08608  -0.08608  -0.08452  -0.04767
 Alpha virt. eigenvalues --   -0.04767  -0.04364  -0.01848  -0.01846  -0.01535
 Alpha virt. eigenvalues --    0.00614   0.00615   0.00681   0.03954   0.03955
 Alpha virt. eigenvalues --    0.04274   0.07422   0.07425   0.08880   0.10770
 Alpha virt. eigenvalues --    0.10771   0.15313   0.15529   0.15768   0.16962
 Alpha virt. eigenvalues --    0.16963   0.20650   0.20651   0.20667   0.23113
 Alpha virt. eigenvalues --    0.23114   0.23710   0.24332   0.24788   0.24790
 Alpha virt. eigenvalues --    0.25245   0.27031   0.27035   0.29413   0.32520
 Alpha virt. eigenvalues --    0.32521   0.32933   0.34117   0.34122   0.39618
 Alpha virt. eigenvalues --    0.39619   0.40925   0.40928   0.41934   0.56429
 Alpha virt. eigenvalues --    0.58472   0.58475   0.59574   0.62211   0.62211
 Alpha virt. eigenvalues --    0.63569   0.65323   0.67981   0.67984   0.71751
 Alpha virt. eigenvalues --    0.72697   0.72940   0.72941   0.73589   0.74461
 Alpha virt. eigenvalues --    0.74465   0.78445   0.78446   0.80565   0.80961
 Alpha virt. eigenvalues --    0.87817   0.87822   0.88288   0.88290   0.88875
 Alpha virt. eigenvalues --    0.95117   0.95118   0.95598   0.97796   0.97800
 Alpha virt. eigenvalues --    1.01708   1.01709   1.05029   1.05030   1.06534
 Alpha virt. eigenvalues --    1.08520   1.08521   1.11379   1.13336   1.13623
 Alpha virt. eigenvalues --    1.13623   1.27076   1.27079   1.28126   1.35099
 Alpha virt. eigenvalues --    1.35101   1.36013   1.40244   1.40245   1.42293
 Alpha virt. eigenvalues --    1.42684   1.45184   1.45188   1.49952   1.50735
 Alpha virt. eigenvalues --    1.57607   1.57928   1.57930   1.62759   1.62760
 Alpha virt. eigenvalues --    1.70357   1.77790   1.77930   1.77948   1.78655
 Alpha virt. eigenvalues --    1.78666   1.82060   1.85508   1.85519   1.90782
 Alpha virt. eigenvalues --    1.98983   1.98986   2.00882   2.00885   2.10766
 Alpha virt. eigenvalues --    2.18623   2.18631   2.21895   2.26508   2.26513
 Alpha virt. eigenvalues --    2.33536   2.37234   2.40098   2.40105   2.71236
 Alpha virt. eigenvalues --    2.94851   3.13162   3.13175   3.20475   3.35655
 Alpha virt. eigenvalues --    3.35659   3.39385   3.39494   3.39496   3.51241
 Alpha virt. eigenvalues --    3.51242   3.51611   3.60656   3.68700   3.68714
 Alpha virt. eigenvalues --    3.73757   3.73763   3.83427   3.83685   3.83694
 Alpha virt. eigenvalues --    3.84745   3.88189   3.89854   3.89860   3.97562
 Alpha virt. eigenvalues --    3.97573   4.06782   4.07919   4.07931   4.15029
 Alpha virt. eigenvalues --    4.19683   4.19695   4.27416   4.29725   4.32544
 Alpha virt. eigenvalues --    4.32547   4.38608   4.41572   4.41575   4.46787
 Alpha virt. eigenvalues --    4.46790   4.56036   4.56049   4.61039   4.62182
 Alpha virt. eigenvalues --    4.66606   4.66610   4.68400   4.73936   4.73947
 Alpha virt. eigenvalues --    4.83089   4.83108   4.85967   4.91857   4.96561
 Alpha virt. eigenvalues --    4.96570   5.02747   5.18639   5.21163   5.21172
 Alpha virt. eigenvalues --    5.27059   5.51933   5.51947   5.54754   5.54805
 Alpha virt. eigenvalues --    5.55610   5.59410   5.78186   5.78193   5.83581
 Alpha virt. eigenvalues --    5.83595   5.88654   6.13391   6.18086   6.18108
 Alpha virt. eigenvalues --    6.25368   6.45782   6.45790   6.47654   6.62200
 Alpha virt. eigenvalues --    6.83425   6.83440   7.50962   7.50980  17.29613
 Alpha virt. eigenvalues --   18.59067
          Condensed to atoms (all electrons):
               1          2          3          4          5          6
     1  N    5.512047   0.175326   0.405374   0.405385   0.405347   0.000811
     2  C    0.175326   5.549659  -0.010800  -0.010783  -0.010809   0.361455
     3  H    0.405374  -0.010800   0.475215  -0.021044  -0.021022   0.002999
     4  H    0.405385  -0.010783  -0.021044   0.475251  -0.021029   0.002994
     5  H    0.405347  -0.010809  -0.021022  -0.021029   0.475106  -0.005044
     6  H    0.000811   0.361455   0.002999   0.002994  -0.005044   0.222490
     7  H    0.000825   0.361396   0.003004  -0.005051   0.003005   0.012385
     8  H    0.000815   0.361443  -0.005044   0.002994   0.003002   0.012386
               7          8
     1  N    0.000825   0.000815
     2  C    0.361396   0.361443
     3  H    0.003004  -0.005044
     4  H   -0.005051   0.002994
     5  H    0.003005   0.003002
     6  H    0.012385   0.012386
     7  H    0.222358   0.012385
     8  H    0.012385   0.222464
 Mulliken charges:
               1
     1  N    0.094070
     2  C   -0.776886
     3  H    0.171318
     4  H    0.171281
     5  H    0.171443
     6  H    0.389524
     7  H    0.389694
     8  H    0.389555
 Sum of Mulliken charges =   1.00000
 Mulliken charges with hydrogens summed into heavy atoms:
               1
     1  N    0.608113
     2  C    0.391887
 APT charges:
               1
     1  N   -0.314075
     2  C    0.360428
     3  H    0.267422
     4  H    0.267434
     5  H    0.267443
     6  H    0.050434
     7  H    0.050470
     8  H    0.050442
 Sum of APT charges =   1.00000
 APT charges with hydrogens summed into heavy atoms:
               1
     1  N    0.488225
     2  C    0.511775
 DipInt: DoE/N= T F RetVal/Mat= T F Init=T NMatP=  1 IDeriv=0 Min/MaxMlt=  0  4
 Entering OneElI...
 OneElI was handed  1572688905 working-precision words.
 Multipole integrals L=0 to 4 MinM= 0 MaxM= 0.
 Requested accuracy = 0.1000D-12
 ShPair: Thresh= 1.00D-13 NBox=     0 BxSize= 0.00D+00 RnKept= 5.65D+00
         NSMCal=                 3403 NSMKep=                3403
 PrmmSu-InSpLW:  IPartL=    0 NPrtUS=    1 NPrtUL=    1 DoSpLW=F IThBeg=    0 IThEnd=    0 NThAct=    1.
 PrSmSu:  IncTry=   512 NBBP=           3403 NTPThr=   100 NPartT=    1 Incr=          34 LDynOK=F GPUOK=F.
 PrsmSu:  NPrtUS=   1 ThrOK=F IAlg=2 LenDen=           0 ISkipM=0 DoSpLW=F IThBeg=    0 IThEnd=    0.
 Prism:   IPart=     0 DynPar=F LinDyn=F Incr=          34.
 PRISM was handed  1572472011 working-precision words and  3403 shell-pairs
 IPart=  0 NShTot=        3403 NBatch=          55 AvBLen=        61.9
 PrsmSu-ThDecC:  IPartSL=    0    0 NPrtUSL=    1    1 IThBeg=    0 IThEnd=    0 CPU=   -1 GPU=   -1 NThAct=    1.
 PrSmSu:  NxtVal=             35.
 Electronic moments (au):
        -18.00000000         -0.82851730         -0.00698939         -0.07221420
        -58.47567977        -18.09545533        -18.39766466         -0.33526625
         -3.51654147         -0.02894993        -16.31790924         -1.77751122
         -0.86403906         -5.95385922         -0.02482958         -0.36427019
         -6.09108404          1.56431784         -1.24744287         -0.13272506
       -341.16027704        -74.77011141        -74.77924741         -0.70375372
         -9.78990351        -13.42837194         -1.30491697         -8.06771755
          3.09522170        -74.44875280        -76.80331725        -25.90627127
         -2.01607436         -9.79093483         11.48341202
 Electronic spatial extent (au):  <R**2>=             94.9688
 DipInt: DoE/N= F T RetVal/Mat= T F Init=T NMatP=  1 IDeriv=0 Min/MaxMlt=  0  4
 Nuclear    moments (au):
         19.00000000          0.00000000          0.00000000         -0.00000000
         53.45955210         10.56172018         10.88299827          0.35625458
          3.73569408          0.03091990          8.56853580          1.07108420
          0.16096860          2.25504769          0.02619271          0.34151455
          2.36123259         -0.98660832          0.65111075          0.08440779
        176.61423019         28.68439564         26.81211560         -0.10065288
          2.78236786         20.08235793          1.96523519          1.66889431
         -4.96225178         45.35839665         48.61492768         10.79373902
          3.13113168         11.73769696        -18.42657580
 Total      moments (au):
          1.00000000         -0.82851730         -0.00698939         -0.07221420
         -5.01612767         -7.53373515         -7.51466639          0.02098833
          0.21915261          0.00196996         -7.74937344         -0.70642702
         -0.70307045         -3.69881153          0.00136313         -0.02275563
         -3.72985146          0.57770951         -0.59633212         -0.04831728
       -164.54604685        -46.08571577        -47.96713181         -0.80440660
         -7.00753565          6.65398599          0.66031821         -6.39882325
         -1.86703008        -29.09035615        -28.18838957        -15.11253225
          1.11505732          1.94676213         -6.94316378
 Charge=              1.0000 electrons
 Dipole moment (field-independent basis, Debye):
    X=             -2.1059    Y=             -0.0178    Z=             -0.1836  Tot=              2.1139
 Quadrupole moment (field-independent basis, Debye-Ang):
   XX=             -6.7469   YY=            -10.1331   ZZ=            -10.1075
   XY=              0.0282   XZ=              0.2948   YZ=              0.0026
 Traceless Quadrupole moment (field-independent basis, Debye-Ang):
   XX=              2.2490   YY=             -1.1373   ZZ=             -1.1117
   XY=              0.0282   XZ=              0.2948   YZ=              0.0026
 Octapole moment (field-independent basis, Debye-Ang**2):
  XXX=             -5.5157  YYY=             -0.5028  ZZZ=             -0.5004  XYY=             -2.6327
  XXY=              0.0010  XXZ=             -0.0162  XZZ=             -2.6548  YZZ=              0.4112
  YYZ=             -0.4244  XYZ=             -0.0344
 Hexadecapole moment (field-independent basis, Debye-Ang**3):
 XXXX=            -61.9759 YYYY=            -17.3581 ZZZZ=            -18.0667 XXXY=             -0.3030
 XXXZ=             -2.6394 YYYX=              2.5062 YYYZ=              0.2487 ZZZX=             -2.4101
 ZZZY=             -0.7032 XXYY=            -10.9568 XXZZ=            -10.6171 YYZZ=             -5.6921
 XXYZ=              0.4200 YYXZ=              0.7332 ZZXY=             -2.6151
 N-N= 4.756209907965D+01 E-N=-3.127860609047D+02  KE= 9.541953109647D+01
 SetAtRh:  ITypeU=  23 NETotI=      -1 ICharg=  0 NETot=      19.
 StAtR1:  I=    1 I1=    1 IA=  7 C=   7.0 OKShel=TTT
                                                  SSP
                                                  223
 StAtR1:  I=    2 I1=    2 IA=  6 C=   6.0 OKShel=TTT
                                                  SSP
                                                  222
 StAtR1:  I=    3 I1=    3 IA=  1 C=   1.0 OKShel=T
                                                  S
                                                  1
 StAtR1:  I=    4 I1=    4 IA=  1 C=   1.0 OKShel=T
                                                  S
                                                  1
 StAtR1:  I=    5 I1=    5 IA=  1 C=   1.0 OKShel=T
                                                  S
                                                  1
 StAtR1:  I=    6 I1=    6 IA=  1 C=   1.0 OKShel=T
                                                  S
                                                  1
 StAtR1:  I=    7 I1=    7 IA=  1 C=   1.0 OKShel=T
                                                  S
                                                  1
 StAtR1:  I=    8 I1=    8 IA=  1 C=   1.0 OKShel=T
                                                  S
                                                  1
          I=    1 IA=  7 I1=    1 NAtG=22 NE=   7.000 C=   7.000 Err= 6.08D-13
          I=    2 IA=  6 I1=    2 NAtG=23 NE=   6.000 C=   6.000 Err= 1.75D-11
          I=    3 IA=  1 I1=    3 NAtG=20 NE=   1.000 C=   1.000 Err= 2.80D-12
          I=    4 IA=  1 I1=    4 NAtG=20 NE=   1.000 C=   1.000 Err= 2.80D-12
          I=    5 IA=  1 I1=    5 NAtG=20 NE=   1.000 C=   1.000 Err= 2.80D-12
          I=    6 IA=  1 I1=    6 NAtG=20 NE=   1.000 C=   1.000 Err= 2.80D-12
          I=    7 IA=  1 I1=    7 NAtG=20 NE=   1.000 C=   1.000 Err= 2.80D-12
          I=    8 IA=  1 I1=    8 NAtG=20 NE=   1.000 C=   1.000 Err= 2.80D-12
 Pruned (  99, 590) grid will be used in numerical quadrature.
 IPart=  0 IRanGd=          0 ScrnBf=T ScrnGd=T RCrit=4.00D+00 DoMicB=T.
 CutRad = 1000.00    CtRdIn =    0.00    XCrit =  15.00   ICut = 0
 Pruned (  99, 590) grid will be used in numerical quadrature.
 IPart=  0 Atom number   1 atomic number  7 has       23416 grid points.
 IPart=  0 Atom   1 batch    1 overlaps    8 atoms,    82 shells and     8 DB shells.   NGrid=      2408
 Symmetry reduced    86 angular points to    86 for atom    1.
 Pruned (  99, 590) grid will be used in numerical quadrature.
 Pruned (  99, 590) grid will be used in numerical quadrature.
 IPart=  4 IRanGd=          0 ScrnBf=T ScrnGd=T RCrit=4.00D+00 DoMicB=T.
 CutRad = 1000.00    CtRdIn =    0.00    XCrit =  15.00   ICut = 0
 IPart=  7 IRanGd=          0 ScrnBf=T ScrnGd=T RCrit=4.00D+00 DoMicB=T.
 Pruned (  99, 590) grid will be used in numerical quadrature.
 Pruned (  99, 590) grid will be used in numerical quadrature.
 IPart=  3 IRanGd=          0 ScrnBf=T ScrnGd=T RCrit=4.00D+00 DoMicB=T.
 Pruned (  99, 590) grid will be used in numerical quadrature.
 CutRad = 1000.00    CtRdIn =    0.00    XCrit =  15.00   ICut = 0
 CutRad = 1000.00    CtRdIn =    0.00    XCrit =  15.00   ICut = 0
 IPart=  1 IRanGd=          0 ScrnBf=T ScrnGd=T RCrit=4.00D+00 DoMicB=T.
 CutRad = 1000.00    CtRdIn =    0.00    XCrit =  15.00   ICut = 0
 IPart=  6 IRanGd=          0 ScrnBf=T ScrnGd=T RCrit=4.00D+00 DoMicB=T.
 Pruned (  99, 590) grid will be used in numerical quadrature.
 Pruned (  99, 590) grid will be used in numerical quadrature.
 IPart=  2 IRanGd=          0 ScrnBf=T ScrnGd=T RCrit=4.00D+00 DoMicB=T.
 CutRad = 1000.00    CtRdIn =    0.00    XCrit =  15.00   ICut = 0
 IPart=  5 IRanGd=          0 ScrnBf=T ScrnGd=T RCrit=4.00D+00 DoMicB=T.
 CutRad = 1000.00    CtRdIn =    0.00    XCrit =  15.00   ICut = 0
 CutRad = 1000.00    CtRdIn =    0.00    XCrit =  15.00   ICut = 0
 Pruned (  99, 590) grid will be used in numerical quadrature.
 IPart=  4 Atom number   1 atomic number  7 has       23416 grid points.
 IPart=  4 Atom   1 batch    2 overlaps    8 atoms,    82 shells and     8 DB shells.   NGrid=      2522
 Symmetry reduced   194 angular points to   194 for atom    1.
 Pruned (  99, 590) grid will be used in numerical quadrature.
 Pruned (  99, 590) grid will be used in numerical quadrature.
 IPart=  7 Atom number   1 atomic number  7 has       23416 grid points.
 Pruned (  99, 590) grid will be used in numerical quadrature.
 IPart=  3 Atom number   1 atomic number  7 has       23416 grid points.
 IPart=  7 Atom   1 batch    3 overlaps    8 atoms,    82 shells and     8 DB shells.   NGrid=      2114
 IPart=  1 Atom number   1 atomic number  7 has       23416 grid points.
 IPart=  3 Atom   1 batch    4 overlaps    8 atoms,    82 shells and     8 DB shells.   NGrid=      1180
 IPart=  1 Atom   1 batch    5 overlaps    8 atoms,    82 shells and     8 DB shells.   NGrid=      1180
 Symmetry reduced   302 angular points to   302 for atom    1.
 Symmetry reduced   590 angular points to   590 for atom    1.
 Pruned (  99, 590) grid will be used in numerical quadrature.
 Symmetry reduced   590 angular points to   590 for atom    1.
 Pruned (  99, 590) grid will be used in numerical quadrature.
 Pruned (  99, 590) grid will be used in numerical quadrature.
 IPart=  5 Atom number   1 atomic number  7 has       23416 grid points.
 IPart=  6 Atom number   1 atomic number  7 has       23416 grid points.
 IPart=  5 Atom   1 batch    8 overlaps    8 atoms,    82 shells and     8 DB shells.   NGrid=      1180
 IPart=  6 Atom   1 batch    7 overlaps    8 atoms,    82 shells and     8 DB shells.   NGrid=      1180
 IPart=  2 Atom number   1 atomic number  7 has       23416 grid points.
 Symmetry reduced   590 angular points to   590 for atom    1.
 IPart=  2 Atom   1 batch    6 overlaps    8 atoms,    82 shells and     8 DB shells.   NGrid=      1180
 Symmetry reduced   590 angular points to   590 for atom    1.
 Symmetry reduced   590 angular points to   590 for atom    1.
 IPart=  1 Atom   1 batch    9 overlaps    8 atoms,    82 shells and     8 DB shells.   NGrid=      1180
 IPart=  3 Atom   1 batch   10 overlaps    8 atoms,    82 shells and     8 DB shells.   NGrid=      1180
 IPart=  5 Atom   1 batch   11 overlaps    8 atoms,    82 shells and     8 DB shells.   NGrid=      1180
 IPart=  6 Atom   1 batch   12 overlaps    8 atoms,    81 shells and     8 DB shells.   NGrid=       590
 IPart=  2 Atom   1 batch   13 overlaps    8 atoms,    81 shells and     8 DB shells.   NGrid=       604
 Symmetry reduced   302 angular points to   302 for atom    1.
 IPart=  6 Atom   1 batch   14 overlaps    8 atoms,    81 shells and     8 DB shells.   NGrid=       604
 Symmetry reduced   302 angular points to   302 for atom    1.
 IPart=  2 Atom   1 batch   15 overlaps    8 atoms,    79 shells and     8 DB shells.   NGrid=       604
 IPart=  0 Atom   1 batch   16 overlaps    8 atoms,    76 shells and     8 DB shells.   NGrid=       604
 IPart=  7 Atom   1 batch   17 overlaps    8 atoms,    70 shells and     8 DB shells.   NGrid=       604
 Symmetry reduced   302 angular points to   302 for atom    1.
 IPart=  1 Atom   1 batch   18 overlaps    8 atoms,    55 shells and     8 DB shells.   NGrid=       604
 Symmetry reduced   302 angular points to   302 for atom    1.
 IPart=  5 Atom   1 batch   19 overlaps    8 atoms,    44 shells and     8 DB shells.   NGrid=       604
 IPart=  2 Atom   1 batch   20 overlaps    8 atoms,    28 shells and     7 DB shells.   NGrid=       604
 Symmetry reduced   302 angular points to   302 for atom    1.
 IPart=  3 Atom   1 batch   21 overlaps    8 atoms,    17 shells and     3 DB shells.   NGrid=       604
 Symmetry reduced   302 angular points to   302 for atom    1.
 IPart=  6 Atom   1 batch   22 overlaps    8 atoms,     8 shells and     0 DB shells.   NGrid=       604
 IPart=  2 Atom   1 batch   23 overlaps    8 atoms,     3 shells and     0 DB shells.   NGrid=       302
 Pruned (  99, 590) grid will be used in numerical quadrature.
 IPart=  3 Atom number   2 atomic number  6 has       23114 grid points.
 IPart=  3 Atom   2 batch    1 overlaps    8 atoms,    82 shells and     8 DB shells.   NGrid=      2408
 Symmetry reduced    86 angular points to    86 for atom    2.
 Pruned (  99, 590) grid will be used in numerical quadrature.
 IPart=  2 Atom number   2 atomic number  6 has       23114 grid points.
 IPart=  2 Atom   2 batch    2 overlaps    8 atoms,    82 shells and     8 DB shells.   NGrid=      2522
 Pruned (  99, 590) grid will be used in numerical quadrature.
 Symmetry reduced   194 angular points to   194 for atom    2.
 IPart=  4 Atom number   2 atomic number  6 has       23114 grid points.
 IPart=  4 Atom   2 batch    3 overlaps    8 atoms,    82 shells and     8 DB shells.   NGrid=      2114
 Symmetry reduced   302 angular points to   302 for atom    2.
 Pruned (  99, 590) grid will be used in numerical quadrature.
 IPart=  6 Atom number   2 atomic number  6 has       23114 grid points.
 IPart=  6 Atom   2 batch    4 overlaps    8 atoms,    82 shells and     8 DB shells.   NGrid=      1180
 Symmetry reduced   590 angular points to   590 for atom    2.
 Pruned (  99, 590) grid will be used in numerical quadrature.
 Pruned (  99, 590) grid will be used in numerical quadrature.
 IPart=  7 Atom number   2 atomic number  6 has       23114 grid points.
 IPart=  5 Atom number   2 atomic number  6 has       23114 grid points.
 IPart=  7 Atom   2 batch    5 overlaps    8 atoms,    82 shells and     8 DB shells.   NGrid=      1180
 IPart=  5 Atom   2 batch    6 overlaps    8 atoms,    82 shells and     8 DB shells.   NGrid=      1180
 Symmetry reduced   590 angular points to   590 for atom    2.
 Symmetry reduced   590 angular points to   590 for atom    2.
 Pruned (  99, 590) grid will be used in numerical quadrature.
 IPart=  0 Atom number   2 atomic number  6 has       23114 grid points.
 IPart=  0 Atom   2 batch    7 overlaps    8 atoms,    82 shells and     8 DB shells.   NGrid=      1180
 Symmetry reduced   590 angular points to   590 for atom    2.
 Pruned (  99, 590) grid will be used in numerical quadrature.
 IPart=  1 Atom number   2 atomic number  6 has       23114 grid points.
 IPart=  1 Atom   2 batch    8 overlaps    8 atoms,    82 shells and     8 DB shells.   NGrid=      1180
 Symmetry reduced   590 angular points to   590 for atom    2.
 IPart=  6 Atom   2 batch    9 overlaps    8 atoms,    82 shells and     8 DB shells.   NGrid=      1180
 IPart=  5 Atom   2 batch   10 overlaps    8 atoms,    82 shells and     8 DB shells.   NGrid=      1180
 IPart=  7 Atom   2 batch   11 overlaps    8 atoms,    81 shells and     8 DB shells.   NGrid=      1180
 IPart=  1 Atom   2 batch   12 overlaps    8 atoms,    81 shells and     8 DB shells.   NGrid=       590
 IPart=  0 Atom   2 batch   13 overlaps    8 atoms,    81 shells and     8 DB shells.   NGrid=       604
 Symmetry reduced   302 angular points to   302 for atom    2.
 IPart=  1 Atom   2 batch   14 overlaps    8 atoms,    81 shells and     8 DB shells.   NGrid=       604
 Symmetry reduced   302 angular points to   302 for atom    2.
 IPart=  0 Atom   2 batch   15 overlaps    8 atoms,    77 shells and     8 DB shells.   NGrid=       604
 IPart=  4 Atom   2 batch   16 overlaps    8 atoms,    69 shells and     8 DB shells.   NGrid=       604
 IPart=  7 Atom   2 batch   17 overlaps    8 atoms,    57 shells and     8 DB shells.   NGrid=       604
 Symmetry reduced   302 angular points to   302 for atom    2.
 IPart=  3 Atom   2 batch   18 overlaps    8 atoms,    46 shells and     8 DB shells.   NGrid=       604
 Symmetry reduced   302 angular points to   302 for atom    2.
 IPart=  0 Atom   2 batch   19 overlaps    8 atoms,    31 shells and     8 DB shells.   NGrid=       604
 IPart=  1 Atom   2 batch   20 overlaps    8 atoms,    23 shells and     3 DB shells.   NGrid=       604
 IPart=  5 Atom   2 batch   21 overlaps    8 atoms,    10 shells and     0 DB shells.   NGrid=       604
 Symmetry reduced   302 angular points to   302 for atom    2.
 IPart=  0 Atom   2 batch   22 overlaps    8 atoms,     6 shells and     0 DB shells.   NGrid=       604
 Pruned (  99, 590) grid will be used in numerical quadrature.
 IPart=  1 Atom number   3 atomic number  1 has       23164 grid points.
 IPart=  1 Atom   3 batch    1 overlaps    8 atoms,    81 shells and     8 DB shells.   NGrid=      2838
 Symmetry reduced    86 angular points to    86 for atom    3.
 Pruned (  99, 590) grid will be used in numerical quadrature.
 IPart=  6 Atom number   3 atomic number  1 has       23164 grid points.
 IPart=  6 Atom   3 batch    2 overlaps    8 atoms,    81 shells and     8 DB shells.   NGrid=      1552
 Symmetry reduced   194 angular points to   194 for atom    3.
 Pruned (  99, 590) grid will be used in numerical quadrature.
 Pruned (  99, 590) grid will be used in numerical quadrature.
 IPart=  5 Atom number   3 atomic number  1 has       23164 grid points.
 IPart=  3 Atom number   3 atomic number  1 has       23164 grid points.
 IPart=  5 Atom   3 batch    3 overlaps    8 atoms,    82 shells and     8 DB shells.   NGrid=      2416
 IPart=  3 Atom   3 batch    4 overlaps    8 atoms,    82 shells and     8 DB shells.   NGrid=      1180
 Symmetry reduced   302 angular points to   302 for atom    3.
 Symmetry reduced   590 angular points to   590 for atom    3.
 Pruned (  99, 590) grid will be used in numerical quadrature.
 IPart=  2 Atom number   3 atomic number  1 has       23164 grid points.
 IPart=  2 Atom   3 batch    5 overlaps    8 atoms,    82 shells and     8 DB shells.   NGrid=      1180
 Pruned (  99, 590) grid will be used in numerical quadrature.
 Symmetry reduced   590 angular points to   590 for atom    3.
 IPart=  0 Atom number   3 atomic number  1 has       23164 grid points.
 IPart=  0 Atom   3 batch    6 overlaps    8 atoms,    82 shells and     8 DB shells.   NGrid=      1180
 Symmetry reduced   590 angular points to   590 for atom    3.
 Pruned (  99, 590) grid will be used in numerical quadrature.
 IPart=  7 Atom number   3 atomic number  1 has       23164 grid points.
 IPart=  7 Atom   3 batch    7 overlaps    8 atoms,    82 shells and     8 DB shells.   NGrid=      1180
 Pruned (  99, 590) grid will be used in numerical quadrature.
 Symmetry reduced   590 angular points to   590 for atom    3.
 IPart=  4 Atom number   3 atomic number  1 has       23164 grid points.
 IPart=  4 Atom   3 batch    8 overlaps    8 atoms,    82 shells and     8 DB shells.   NGrid=      1180
 Symmetry reduced   590 angular points to   590 for atom    3.
 IPart=  3 Atom   3 batch    9 overlaps    8 atoms,    82 shells and     8 DB shells.   NGrid=      1180
 IPart=  2 Atom   3 batch   10 overlaps    8 atoms,    82 shells and     8 DB shells.   NGrid=      1180
 IPart=  0 Atom   3 batch   11 overlaps    8 atoms,    82 shells and     8 DB shells.   NGrid=      1180
 IPart=  7 Atom   3 batch   12 overlaps    8 atoms,    82 shells and     8 DB shells.   NGrid=      1180
 IPart=  4 Atom   3 batch   13 overlaps    8 atoms,    82 shells and     8 DB shells.   NGrid=       604
 Symmetry reduced   302 angular points to   302 for atom    3.
 IPart=  6 Atom   3 batch   14 overlaps    8 atoms,    81 shells and     8 DB shells.   NGrid=       604
 Symmetry reduced   302 angular points to   302 for atom    3.
 IPart=  4 Atom   3 batch   15 overlaps    8 atoms,    78 shells and     8 DB shells.   NGrid=       604
 IPart=  6 Atom   3 batch   16 overlaps    8 atoms,    74 shells and     8 DB shells.   NGrid=       604
 IPart=  5 Atom   3 batch   17 overlaps    8 atoms,    66 shells and     8 DB shells.   NGrid=       604
 IPart=  0 Atom   3 batch   18 overlaps    8 atoms,    49 shells and     8 DB shells.   NGrid=       604
 Symmetry reduced   302 angular points to   302 for atom    3.
 IPart=  4 Atom   3 batch   19 overlaps    8 atoms,    33 shells and     7 DB shells.   NGrid=       604
 IPart=  6 Atom   3 batch   20 overlaps    8 atoms,    22 shells and     4 DB shells.   NGrid=       604
 IPart=  3 Atom   3 batch   21 overlaps    8 atoms,     9 shells and     0 DB shells.   NGrid=       604
 Symmetry reduced   302 angular points to   302 for atom    3.
 IPart=  2 Atom   3 batch   22 overlaps    8 atoms,     5 shells and     0 DB shells.   NGrid=       302
 Pruned (  99, 590) grid will be used in numerical quadrature.
 Symmetry reduced   302 angular points to   302 for atom    3.
 IPart=  7 Atom number   4 atomic number  1 has       23164 grid points.
 IPart=  7 Atom   4 batch    1 overlaps    8 atoms,    81 shells and     8 DB shells.   NGrid=      2838
 Symmetry reduced    86 angular points to    86 for atom    4.
 Pruned (  99, 590) grid will be used in numerical quadrature.
 IPart=  6 Atom number   4 atomic number  1 has       23164 grid points.
 IPart=  6 Atom   4 batch    2 overlaps    8 atoms,    81 shells and     8 DB shells.   NGrid=      1552
 Pruned (  99, 590) grid will be used in numerical quadrature.
 Symmetry reduced   194 angular points to   194 for atom    4.
 IPart=  4 Atom number   4 atomic number  1 has       23164 grid points.
 IPart=  4 Atom   4 batch    3 overlaps    8 atoms,    82 shells and     8 DB shells.   NGrid=      2416
 Symmetry reduced   302 angular points to   302 for atom    4.
 Pruned (  99, 590) grid will be used in numerical quadrature.
 IPart=  2 Atom number   4 atomic number  1 has       23164 grid points.
 IPart=  2 Atom   4 batch    4 overlaps    8 atoms,    82 shells and     8 DB shells.   NGrid=      1180
 Symmetry reduced   590 angular points to   590 for atom    4.
 Pruned (  99, 590) grid will be used in numerical quadrature.
 IPart=  3 Atom number   4 atomic number  1 has       23164 grid points.
 IPart=  3 Atom   4 batch    5 overlaps    8 atoms,    82 shells and     8 DB shells.   NGrid=      1180
 Symmetry reduced   590 angular points to   590 for atom    4.
 Pruned (  99, 590) grid will be used in numerical quadrature.
 IPart=  0 Atom number   4 atomic number  1 has       23164 grid points.
 IPart=  0 Atom   4 batch    6 overlaps    8 atoms,    82 shells and     8 DB shells.   NGrid=      1180
 Symmetry reduced   590 angular points to   590 for atom    4.
 Pruned (  99, 590) grid will be used in numerical quadrature.
 IPart=  1 Atom number   4 atomic number  1 has       23164 grid points.
 IPart=  1 Atom   4 batch    7 overlaps    8 atoms,    82 shells and     8 DB shells.   NGrid=      1180
 Symmetry reduced   590 angular points to   590 for atom    4.
 Pruned (  99, 590) grid will be used in numerical quadrature.
 IPart=  5 Atom number   4 atomic number  1 has       23164 grid points.
 IPart=  5 Atom   4 batch    8 overlaps    8 atoms,    82 shells and     8 DB shells.   NGrid=      1180
 Symmetry reduced   590 angular points to   590 for atom    4.
 IPart=  2 Atom   4 batch    9 overlaps    8 atoms,    82 shells and     8 DB shells.   NGrid=      1180
 IPart=  3 Atom   4 batch   10 overlaps    8 atoms,    82 shells and     8 DB shells.   NGrid=      1180
 IPart=  0 Atom   4 batch   11 overlaps    8 atoms,    82 shells and     8 DB shells.   NGrid=      1180
 IPart=  1 Atom   4 batch   12 overlaps    8 atoms,    82 shells and     8 DB shells.   NGrid=      1180
 IPart=  5 Atom   4 batch   13 overlaps    8 atoms,    82 shells and     8 DB shells.   NGrid=       604
 Symmetry reduced   302 angular points to   302 for atom    4.
 IPart=  6 Atom   4 batch   14 overlaps    8 atoms,    81 shells and     8 DB shells.   NGrid=       604
 Symmetry reduced   302 angular points to   302 for atom    4.
 IPart=  5 Atom   4 batch   15 overlaps    8 atoms,    78 shells and     8 DB shells.   NGrid=       604
 IPart=  6 Atom   4 batch   16 overlaps    8 atoms,    74 shells and     8 DB shells.   NGrid=       604
 IPart=  4 Atom   4 batch   17 overlaps    8 atoms,    66 shells and     8 DB shells.   NGrid=       604
 IPart=  1 Atom   4 batch   18 overlaps    8 atoms,    49 shells and     8 DB shells.   NGrid=       604
 Symmetry reduced   302 angular points to   302 for atom    4.
 IPart=  2 Atom   4 batch   19 overlaps    8 atoms,    33 shells and     7 DB shells.   NGrid=       604
 Symmetry reduced   302 angular points to   302 for atom    4.
 IPart=  6 Atom   4 batch   20 overlaps    8 atoms,    22 shells and     4 DB shells.   NGrid=       604
 IPart=  3 Atom   4 batch   21 overlaps    8 atoms,     9 shells and     0 DB shells.   NGrid=       604
 Symmetry reduced   302 angular points to   302 for atom    4.
 IPart=  0 Atom   4 batch   22 overlaps    8 atoms,     5 shells and     0 DB shells.   NGrid=       302
 Symmetry reduced   302 angular points to   302 for atom    4.
 Pruned (  99, 590) grid will be used in numerical quadrature.
 IPart=  0 Atom number   5 atomic number  1 has       23164 grid points.
 IPart=  0 Atom   5 batch    1 overlaps    8 atoms,    81 shells and     8 DB shells.   NGrid=      2838
 Symmetry reduced    86 angular points to    86 for atom    5.
 Pruned (  99, 590) grid will be used in numerical quadrature.
 IPart=  6 Atom number   5 atomic number  1 has       23164 grid points.
 IPart=  6 Atom   5 batch    2 overlaps    8 atoms,    81 shells and     8 DB shells.   NGrid=      1552
 Symmetry reduced   194 angular points to   194 for atom    5.
 Pruned (  99, 590) grid will be used in numerical quadrature.
 IPart=  2 Atom number   5 atomic number  1 has       23164 grid points.
 IPart=  2 Atom   5 batch    3 overlaps    8 atoms,    82 shells and     8 DB shells.   NGrid=      2416
 Pruned (  99, 590) grid will be used in numerical quadrature.
 Symmetry reduced   302 angular points to   302 for atom    5.
 IPart=  5 Atom number   5 atomic number  1 has       23164 grid points.
 IPart=  5 Atom   5 batch    4 overlaps    8 atoms,    82 shells and     8 DB shells.   NGrid=      1180
 Symmetry reduced   590 angular points to   590 for atom    5.
 Pruned (  99, 590) grid will be used in numerical quadrature.
 IPart=  3 Atom number   5 atomic number  1 has       23164 grid points.
 IPart=  3 Atom   5 batch    5 overlaps    8 atoms,    82 shells and     8 DB shells.   NGrid=      1180
 Symmetry reduced   590 angular points to   590 for atom    5.
 Pruned (  99, 590) grid will be used in numerical quadrature.
 IPart=  1 Atom number   5 atomic number  1 has       23164 grid points.
 Pruned (  99, 590) grid will be used in numerical quadrature.
 IPart=  1 Atom   5 batch    6 overlaps    8 atoms,    82 shells and     8 DB shells.   NGrid=      1180
 IPart=  7 Atom number   5 atomic number  1 has       23164 grid points.
 IPart=  7 Atom   5 batch    7 overlaps    8 atoms,    82 shells and     8 DB shells.   NGrid=      1180
 Symmetry reduced   590 angular points to   590 for atom    5.
 Symmetry reduced   590 angular points to   590 for atom    5.
 Pruned (  99, 590) grid will be used in numerical quadrature.
 IPart=  4 Atom number   5 atomic number  1 has       23164 grid points.
 IPart=  4 Atom   5 batch    8 overlaps    8 atoms,    82 shells and     8 DB shells.   NGrid=      1180
 Symmetry reduced   590 angular points to   590 for atom    5.
 IPart=  5 Atom   5 batch    9 overlaps    8 atoms,    82 shells and     8 DB shells.   NGrid=      1180
 IPart=  3 Atom   5 batch   10 overlaps    8 atoms,    82 shells and     8 DB shells.   NGrid=      1180
 IPart=  1 Atom   5 batch   11 overlaps    8 atoms,    82 shells and     8 DB shells.   NGrid=      1180
 IPart=  7 Atom   5 batch   12 overlaps    8 atoms,    82 shells and     8 DB shells.   NGrid=      1180
 IPart=  4 Atom   5 batch   13 overlaps    8 atoms,    82 shells and     8 DB shells.   NGrid=       604
 Symmetry reduced   302 angular points to   302 for atom    5.
 IPart=  6 Atom   5 batch   14 overlaps    8 atoms,    81 shells and     8 DB shells.   NGrid=       604
 Symmetry reduced   302 angular points to   302 for atom    5.
 IPart=  4 Atom   5 batch   15 overlaps    8 atoms,    78 shells and     8 DB shells.   NGrid=       604
 IPart=  6 Atom   5 batch   16 overlaps    8 atoms,    74 shells and     8 DB shells.   NGrid=       604
 IPart=  2 Atom   5 batch   17 overlaps    8 atoms,    66 shells and     8 DB shells.   NGrid=       604
 IPart=  7 Atom   5 batch   18 overlaps    8 atoms,    49 shells and     8 DB shells.   NGrid=       604
 Symmetry reduced   302 angular points to   302 for atom    5.
 IPart=  6 Atom   5 batch   19 overlaps    8 atoms,    33 shells and     7 DB shells.   NGrid=       604
 IPart=  1 Atom   5 batch   20 overlaps    8 atoms,    22 shells and     4 DB shells.   NGrid=       604
 Symmetry reduced   302 angular points to   302 for atom    5.
 IPart=  5 Atom   5 batch   21 overlaps    8 atoms,     9 shells and     0 DB shells.   NGrid=       604
 Symmetry reduced   302 angular points to   302 for atom    5.
 IPart=  4 Atom   5 batch   22 overlaps    8 atoms,     5 shells and     0 DB shells.   NGrid=       302
 Pruned (  99, 590) grid will be used in numerical quadrature.
 IPart=  3 Atom number   6 atomic number  1 has       23164 grid points.
 IPart=  3 Atom   6 batch    1 overlaps    8 atoms,    81 shells and     8 DB shells.   NGrid=      2838
 Symmetry reduced    86 angular points to    86 for atom    6.
 Pruned (  99, 590) grid will be used in numerical quadrature.
 IPart=  4 Atom number   6 atomic number  1 has       23164 grid points.
 IPart=  4 Atom   6 batch    2 overlaps    8 atoms,    81 shells and     8 DB shells.   NGrid=      1552
 Symmetry reduced   194 angular points to   194 for atom    6.
 Pruned (  99, 590) grid will be used in numerical quadrature.
 IPart=  1 Atom number   6 atomic number  1 has       23164 grid points.
 Pruned (  99, 590) grid will be used in numerical quadrature.
 IPart=  1 Atom   6 batch    3 overlaps    8 atoms,    81 shells and     8 DB shells.   NGrid=      2416
 IPart=  6 Atom number   6 atomic number  1 has       23164 grid points.
 Symmetry reduced   302 angular points to   302 for atom    6.
 IPart=  6 Atom   6 batch    4 overlaps    8 atoms,    82 shells and     8 DB shells.   NGrid=      1180
 Symmetry reduced   590 angular points to   590 for atom    6.
 Pruned (  99, 590) grid will be used in numerical quadrature.
 IPart=  5 Atom number   6 atomic number  1 has       23164 grid points.
 IPart=  5 Atom   6 batch    5 overlaps    8 atoms,    82 shells and     8 DB shells.   NGrid=      1180
 Symmetry reduced   590 angular points to   590 for atom    6.
 Pruned (  99, 590) grid will be used in numerical quadrature.
 IPart=  0 Atom number   6 atomic number  1 has       23164 grid points.
 IPart=  0 Atom   6 batch    6 overlaps    8 atoms,    82 shells and     8 DB shells.   NGrid=      1180
 Symmetry reduced   590 angular points to   590 for atom    6.
 Pruned (  99, 590) grid will be used in numerical quadrature.
 IPart=  7 Atom number   6 atomic number  1 has       23164 grid points.
 IPart=  7 Atom   6 batch    7 overlaps    8 atoms,    82 shells and     8 DB shells.   NGrid=      1180
 Symmetry reduced   590 angular points to   590 for atom    6.
 Pruned (  99, 590) grid will be used in numerical quadrature.
 IPart=  2 Atom number   6 atomic number  1 has       23164 grid points.
 IPart=  2 Atom   6 batch    8 overlaps    8 atoms,    82 shells and     8 DB shells.   NGrid=      1180
 Symmetry reduced   590 angular points to   590 for atom    6.
 IPart=  6 Atom   6 batch    9 overlaps    8 atoms,    82 shells and     8 DB shells.   NGrid=      1180
 IPart=  5 Atom   6 batch   10 overlaps    8 atoms,    82 shells and     8 DB shells.   NGrid=      1180
 IPart=  0 Atom   6 batch   11 overlaps    8 atoms,    82 shells and     8 DB shells.   NGrid=      1180
 IPart=  7 Atom   6 batch   12 overlaps    8 atoms,    82 shells and     8 DB shells.   NGrid=      1180
 IPart=  2 Atom   6 batch   13 overlaps    8 atoms,    82 shells and     8 DB shells.   NGrid=       604
 Symmetry reduced   302 angular points to   302 for atom    6.
 IPart=  4 Atom   6 batch   14 overlaps    8 atoms,    82 shells and     8 DB shells.   NGrid=       604
 Symmetry reduced   302 angular points to   302 for atom    6.
 IPart=  4 Atom   6 batch   15 overlaps    8 atoms,    78 shells and     8 DB shells.   NGrid=       604
 IPart=  2 Atom   6 batch   16 overlaps    8 atoms,    76 shells and     8 DB shells.   NGrid=       604
 IPart=  0 Atom   6 batch   17 overlaps    8 atoms,    64 shells and     8 DB shells.   NGrid=       604
 Symmetry reduced   302 angular points to   302 for atom    6.
 IPart=  1 Atom   6 batch   18 overlaps    8 atoms,    50 shells and     8 DB shells.   NGrid=       604
 IPart=  6 Atom   6 batch   19 overlaps    8 atoms,    34 shells and     8 DB shells.   NGrid=       604
 Symmetry reduced   302 angular points to   302 for atom    6.
 IPart=  7 Atom   6 batch   20 overlaps    8 atoms,    21 shells and     3 DB shells.   NGrid=       604
 Symmetry reduced   302 angular points to   302 for atom    6.
 IPart=  2 Atom   6 batch   21 overlaps    8 atoms,    10 shells and     0 DB shells.   NGrid=       604
 IPart=  5 Atom   6 batch   22 overlaps    8 atoms,     5 shells and     0 DB shells.   NGrid=       302
 Pruned (  99, 590) grid will be used in numerical quadrature.
 Symmetry reduced   302 angular points to   302 for atom    6.
 IPart=  3 Atom number   7 atomic number  1 has       23164 grid points.
 IPart=  3 Atom   7 batch    1 overlaps    8 atoms,    81 shells and     8 DB shells.   NGrid=      2838
 Symmetry reduced    86 angular points to    86 for atom    7.
 Pruned (  99, 590) grid will be used in numerical quadrature.
 IPart=  4 Atom number   7 atomic number  1 has       23164 grid points.
 IPart=  4 Atom   7 batch    2 overlaps    8 atoms,    81 shells and     8 DB shells.   NGrid=      1552
 Pruned (  99, 590) grid will be used in numerical quadrature.
 Symmetry reduced   194 angular points to   194 for atom    7.
 IPart=  7 Atom number   7 atomic number  1 has       23164 grid points.
 IPart=  7 Atom   7 batch    3 overlaps    8 atoms,    81 shells and     8 DB shells.   NGrid=      2416
 Symmetry reduced   302 angular points to   302 for atom    7.
 Pruned (  99, 590) grid will be used in numerical quadrature.
 IPart=  6 Atom number   7 atomic number  1 has       23164 grid points.
 IPart=  6 Atom   7 batch    4 overlaps    8 atoms,    82 shells and     8 DB shells.   NGrid=      1180
 Symmetry reduced   590 angular points to   590 for atom    7.
 Pruned (  99, 590) grid will be used in numerical quadrature.
 Pruned (  99, 590) grid will be used in numerical quadrature.
 IPart=  1 Atom number   7 atomic number  1 has       23164 grid points.
 IPart=  5 Atom number   7 atomic number  1 has       23164 grid points.
 IPart=  1 Atom   7 batch    5 overlaps    8 atoms,    82 shells and     8 DB shells.   NGrid=      1180
 Pruned (  99, 590) grid will be used in numerical quadrature.
 Symmetry reduced   590 angular points to   590 for atom    7.
 IPart=  2 Atom number   7 atomic number  1 has       23164 grid points.
 IPart=  2 Atom   7 batch    7 overlaps    8 atoms,    82 shells and     8 DB shells.   NGrid=      1180
 IPart=  5 Atom   7 batch    6 overlaps    8 atoms,    82 shells and     8 DB shells.   NGrid=      1180
 Symmetry reduced   590 angular points to   590 for atom    7.
 Symmetry reduced   590 angular points to   590 for atom    7.
 Pruned (  99, 590) grid will be used in numerical quadrature.
 IPart=  0 Atom number   7 atomic number  1 has       23164 grid points.
 IPart=  0 Atom   7 batch    8 overlaps    8 atoms,    82 shells and     8 DB shells.   NGrid=      1180
 Symmetry reduced   590 angular points to   590 for atom    7.
 IPart=  6 Atom   7 batch    9 overlaps    8 atoms,    82 shells and     8 DB shells.   NGrid=      1180
 IPart=  1 Atom   7 batch   10 overlaps    8 atoms,    82 shells and     8 DB shells.   NGrid=      1180
 IPart=  5 Atom   7 batch   11 overlaps    8 atoms,    82 shells and     8 DB shells.   NGrid=      1180
 IPart=  2 Atom   7 batch   12 overlaps    8 atoms,    82 shells and     8 DB shells.   NGrid=      1180
 IPart=  0 Atom   7 batch   13 overlaps    8 atoms,    82 shells and     8 DB shells.   NGrid=       604
 Symmetry reduced   302 angular points to   302 for atom    7.
 IPart=  4 Atom   7 batch   14 overlaps    8 atoms,    82 shells and     8 DB shells.   NGrid=       604
 Symmetry reduced   302 angular points to   302 for atom    7.
 IPart=  0 Atom   7 batch   15 overlaps    8 atoms,    78 shells and     8 DB shells.   NGrid=       604
 IPart=  4 Atom   7 batch   16 overlaps    8 atoms,    76 shells and     8 DB shells.   NGrid=       604
 IPart=  2 Atom   7 batch   17 overlaps    8 atoms,    64 shells and     8 DB shells.   NGrid=       604
 Symmetry reduced   302 angular points to   302 for atom    7.
 IPart=  7 Atom   7 batch   18 overlaps    8 atoms,    50 shells and     8 DB shells.   NGrid=       604
 IPart=  6 Atom   7 batch   19 overlaps    8 atoms,    34 shells and     8 DB shells.   NGrid=       604
 Symmetry reduced   302 angular points to   302 for atom    7.
 IPart=  5 Atom   7 batch   20 overlaps    8 atoms,    21 shells and     3 DB shells.   NGrid=       604
 IPart=  4 Atom   7 batch   21 overlaps    8 atoms,    10 shells and     0 DB shells.   NGrid=       604
 Symmetry reduced   302 angular points to   302 for atom    7.
 IPart=  1 Atom   7 batch   22 overlaps    8 atoms,     5 shells and     0 DB shells.   NGrid=       302
 Symmetry reduced   302 angular points to   302 for atom    7.
 Pruned (  99, 590) grid will be used in numerical quadrature.
 IPart=  0 Atom number   8 atomic number  1 has       23164 grid points.
 IPart=  0 Atom   8 batch    1 overlaps    8 atoms,    81 shells and     8 DB shells.   NGrid=      2838
 Symmetry reduced    86 angular points to    86 for atom    8.
 Pruned (  99, 590) grid will be used in numerical quadrature.
 IPart=  6 Atom number   8 atomic number  1 has       23164 grid points.
 IPart=  6 Atom   8 batch    2 overlaps    8 atoms,    81 shells and     8 DB shells.   NGrid=      1552
 Symmetry reduced   194 angular points to   194 for atom    8.
 Pruned (  99, 590) grid will be used in numerical quadrature.
 IPart=  1 Atom number   8 atomic number  1 has       23164 grid points.
 IPart=  1 Atom   8 batch    3 overlaps    8 atoms,    81 shells and     8 DB shells.   NGrid=      2416
 Symmetry reduced   302 angular points to   302 for atom    8.
 Pruned (  99, 590) grid will be used in numerical quadrature.
 IPart=  5 Atom number   8 atomic number  1 has       23164 grid points.
 IPart=  5 Atom   8 batch    4 overlaps    8 atoms,    82 shells and     8 DB shells.   NGrid=      1180
 Symmetry reduced   590 angular points to   590 for atom    8.
 Pruned (  99, 590) grid will be used in numerical quadrature.
 Pruned (  99, 590) grid will be used in numerical quadrature.
 IPart=  3 Atom number   8 atomic number  1 has       23164 grid points.
 IPart=  4 Atom number   8 atomic number  1 has       23164 grid points.
 IPart=  3 Atom   8 batch    5 overlaps    8 atoms,    82 shells and     8 DB shells.   NGrid=      1180
 IPart=  4 Atom   8 batch    6 overlaps    8 atoms,    82 shells and     8 DB shells.   NGrid=      1180
 Symmetry reduced   590 angular points to   590 for atom    8.
 Symmetry reduced   590 angular points to   590 for atom    8.
 Pruned (  99, 590) grid will be used in numerical quadrature.
 IPart=  7 Atom number   8 atomic number  1 has       23164 grid points.
 IPart=  7 Atom   8 batch    7 overlaps    8 atoms,    82 shells and     8 DB shells.   NGrid=      1180
 Symmetry reduced   590 angular points to   590 for atom    8.
 Pruned (  99, 590) grid will be used in numerical quadrature.
 IPart=  2 Atom number   8 atomic number  1 has       23164 grid points.
 IPart=  2 Atom   8 batch    8 overlaps    8 atoms,    82 shells and     8 DB shells.   NGrid=      1180
 Symmetry reduced   590 angular points to   590 for atom    8.
 IPart=  5 Atom   8 batch    9 overlaps    8 atoms,    82 shells and     8 DB shells.   NGrid=      1180
 IPart=  3 Atom   8 batch   10 overlaps    8 atoms,    82 shells and     8 DB shells.   NGrid=      1180
 IPart=  4 Atom   8 batch   11 overlaps    8 atoms,    82 shells and     8 DB shells.   NGrid=      1180
 IPart=  7 Atom   8 batch   12 overlaps    8 atoms,    82 shells and     8 DB shells.   NGrid=      1180
 IPart=  2 Atom   8 batch   13 overlaps    8 atoms,    82 shells and     8 DB shells.   NGrid=       604
 Symmetry reduced   302 angular points to   302 for atom    8.
 IPart=  6 Atom   8 batch   14 overlaps    8 atoms,    82 shells and     8 DB shells.   NGrid=       604
 Symmetry reduced   302 angular points to   302 for atom    8.
 IPart=  2 Atom   8 batch   15 overlaps    8 atoms,    78 shells and     8 DB shells.   NGrid=       604
 IPart=  6 Atom   8 batch   16 overlaps    8 atoms,    76 shells and     8 DB shells.   NGrid=       604
 IPart=  7 Atom   8 batch   17 overlaps    8 atoms,    64 shells and     8 DB shells.   NGrid=       604
 Symmetry reduced   302 angular points to   302 for atom    8.
 IPart=  1 Atom   8 batch   18 overlaps    8 atoms,    50 shells and     8 DB shells.   NGrid=       604
 IPart=  4 Atom   8 batch   19 overlaps    8 atoms,    34 shells and     8 DB shells.   NGrid=       604
 Symmetry reduced   302 angular points to   302 for atom    8.
 IPart=  5 Atom   8 batch   20 overlaps    8 atoms,    21 shells and     3 DB shells.   NGrid=       604
 Symmetry reduced   302 angular points to   302 for atom    8.
 IPart=  6 Atom   8 batch   21 overlaps    8 atoms,    10 shells and     0 DB shells.   NGrid=       604
 IPart=  2 Atom   8 batch   22 overlaps    8 atoms,     5 shells and     0 DB shells.   NGrid=       302
 There are a total of      185514 grid points.
 ElSum from          density=       18.0000001035
 ElSum from atomic densities=       19.0000001599

 Hirshfeld populations at iteration   1 (CX, CA, CB, DipXYZ):
               1          2          3          4          5          6
     1  N    0.000000   3.467497   3.467497  -0.027702  -0.000197  -0.002388
     2  C    0.000000   2.968199   2.968199  -0.031218  -0.000320  -0.002820
     3  H    0.000000   0.395993   0.395993  -0.073218   0.124590  -0.167360
     4  H    0.000000   0.395991   0.395991  -0.103133   0.075487   0.180448
     5  H    0.000000   0.395982   0.395982  -0.081962  -0.202252  -0.035616
     6  H    0.000000   0.458778   0.458778   0.070224   0.164678   0.029316
     7  H    0.000000   0.458781   0.458781   0.087479  -0.061429  -0.146613
     8  H    0.000000   0.458779   0.458779   0.063107  -0.101395   0.136561
       Tot   0.000001   9.000000   9.000000  -0.096424  -0.000838  -0.008472

 Dip from Atomic Chgs             -0.732093  -0.006151  -0.063743
         Total Dipole             -0.828517  -0.006990  -0.072214

 Hirshfeld charges, spin densities, dipoles, and CM5 charges using IRadAn=      5:
              Q-H        S-H        Dx         Dy         Dz        Q-CM5   
     1  N    0.065006   0.000000  -0.027702  -0.000197  -0.002388  -0.549355
     2  C    0.063602   0.000000  -0.031218  -0.000320  -0.002820  -0.045678
     3  H    0.208013   0.000000  -0.073218   0.124590  -0.167360   0.389526
     4  H    0.208018   0.000000  -0.103133   0.075487   0.180448   0.389550
[...]
 Leave Link  716 at Sun Sep 28 21:05:29 2025, MaxMem=  1572864000 cpu:               0.2 elap:               0.0
 (Enter /software/sse/easybuild/prefix/software/Gaussian/16.C.01-avx2-nsc1/g16/l103.exe)

 GradGradGradGradGradGradGradGradGradGradGradGradGradGradGradGradGradGrad
 Berny optimization.
 Red2BG is reusing G-inverse.
 Internal  Forces:  Max     0.000000020 RMS     0.000000008
 Search for a local minimum.
 Step number   1 out of a maximum of    2
 All quantities printed in internal units (Hartrees-Bohrs-Radians)
 Second derivative matrix not updated -- analytic derivatives used.
 ITU=  0
     Eigenvalues ---    0.00200   0.05445   0.05445   0.05641   0.05641
     Eigenvalues ---    0.14202   0.14623   0.14623   0.15387   0.22186
     Eigenvalues ---    0.22186   0.33496   0.38079   0.38079   0.38802
     Eigenvalues ---    0.47909   0.47909   0.48806
 Angle between quadratic step and forces=  90.00 degrees.
 Linear search not attempted -- first point.
 Iteration  1 RMS(Cart)=  0.00000003 RMS(Int)=  0.00000000
 ITry= 1 IFail=0 DXMaxC= 5.01D-08 DCOld= 1.00D+10 DXMaxT= 3.00D-01 DXLimC= 3.00D+00 Rises=F
 ClnCor:  largest displacement from symmetrization is 8.05D-13 for atom     4.
 Variable       Old X    -DE/DX   Delta X   Delta X   Delta X     New X
                                 (Linear)    (Quad)   (Total)
    R1        2.84078  -0.00000   0.00000  -0.00000  -0.00000   2.84078
    R2        1.90413  -0.00000   0.00000  -0.00000  -0.00000   1.90413
    R3        1.90413  -0.00000   0.00000  -0.00000  -0.00000   1.90413
    R4        1.90413  -0.00000   0.00000  -0.00000  -0.00000   1.90413
    R5        2.03547  -0.00000   0.00000  -0.00000  -0.00000   2.03547
    R6        2.03547  -0.00000   0.00000  -0.00000  -0.00000   2.03547
    R7        2.03547  -0.00000   0.00000  -0.00000  -0.00000   2.03547
    A1        1.94349   0.00000   0.00000   0.00000   0.00000   1.94349
    A2        1.94349   0.00000   0.00000   0.00000   0.00000   1.94349
    A3        1.94349   0.00000   0.00000   0.00000   0.00000   1.94349
    A4        1.87666  -0.00000   0.00000  -0.00000  -0.00000   1.87666
    A5        1.87666  -0.00000   0.00000  -0.00000  -0.00000   1.87666
    A6        1.87666  -0.00000   0.00000  -0.00000  -0.00000   1.87666
    A7        1.88779  -0.00000   0.00000  -0.00000  -0.00000   1.88779
    A8        1.88779  -0.00000   0.00000  -0.00000  -0.00000   1.88779
    A9        1.88779  -0.00000   0.00000  -0.00000  -0.00000   1.88779
   A10        1.93291   0.00000   0.00000   0.00000   0.00000   1.93291
   A11        1.93291   0.00000   0.00000   0.00000   0.00000   1.93291
   A12        1.93291   0.00000   0.00000   0.00000   0.00000   1.93291
    D1        1.04720   0.00000   0.00000   0.00000   0.00000   1.04720
    D2       -1.04720   0.00000   0.00000   0.00000   0.00000  -1.04720
    D3       -3.14159  -0.00000   0.00000   0.00000  -0.00000   3.14159
    D4       -1.04720   0.00000   0.00000   0.00000   0.00000  -1.04720
    D5        3.14159   0.00000   0.00000   0.00000   0.00000   3.14159
    D6        1.04720   0.00000   0.00000   0.00000   0.00000   1.04720
    D7        3.14159  -0.00000   0.00000   0.00000  -0.00000   3.14159
    D8        1.04720   0.00000   0.00000   0.00000   0.00000   1.04720
    D9       -1.04720  -0.00000   0.00000   0.00000   0.00000  -1.04720
         Item               Value     Threshold  Converged?
 Maximum Force            0.000000     0.000002     YES
 RMS     Force            0.000000     0.000001     YES
 Maximum Displacement     0.000000     0.000006     YES
 RMS     Displacement     0.000000     0.000004     YES
 Predicted change in Energy=-2.230542D-15
 Optimization completed.
    -- Stationary point found.
                           ----------------------------
                           !   Optimized Parameters   !
                           ! (Angstroms and Degrees)  !
 --------------------------                            --------------------------
 ! Name  Definition              Value          Derivative Info.                !
 --------------------------------------------------------------------------------
 ! R1    R(1,2)                  1.5033         -DE/DX =    0.0                 !
 ! R2    R(1,3)                  1.0076         -DE/DX =    0.0                 !
 ! R3    R(1,4)                  1.0076         -DE/DX =    0.0                 !
 ! R4    R(1,5)                  1.0076         -DE/DX =    0.0                 !
 ! R5    R(2,6)                  1.0771         -DE/DX =    0.0                 !
 ! R6    R(2,7)                  1.0771         -DE/DX =    0.0                 !
 ! R7    R(2,8)                  1.0771         -DE/DX =    0.0                 !
 ! A1    A(2,1,3)              111.3539         -DE/DX =    0.0                 !
 ! A2    A(2,1,4)              111.3539         -DE/DX =    0.0                 !
 ! A3    A(2,1,5)              111.3539         -DE/DX =    0.0                 !
 ! A4    A(3,1,4)              107.5247         -DE/DX =    0.0                 !
 ! A5    A(3,1,5)              107.5247         -DE/DX =    0.0                 !
 ! A6    A(4,1,5)              107.5247         -DE/DX =    0.0                 !
 ! A7    A(1,2,6)              108.1624         -DE/DX =    0.0                 !
 ! A8    A(1,2,7)              108.1624         -DE/DX =    0.0                 !
 ! A9    A(1,2,8)              108.1624         -DE/DX =    0.0                 !
 ! A10   A(6,2,7)              110.7477         -DE/DX =    0.0                 !
 ! A11   A(6,2,8)              110.7477         -DE/DX =    0.0                 !
 ! A12   A(7,2,8)              110.7477         -DE/DX =    0.0                 !
 ! D1    D(3,1,2,6)             60.0            -DE/DX =    0.0                 !
 ! D2    D(3,1,2,7)            -60.0            -DE/DX =    0.0                 !
 ! D3    D(3,1,2,8)            180.0            -DE/DX =    0.0                 !
 ! D4    D(4,1,2,6)            -60.0            -DE/DX =    0.0                 !
 ! D5    D(4,1,2,7)            180.0            -DE/DX =    0.0                 !
 ! D6    D(4,1,2,8)             60.0            -DE/DX =    0.0                 !
 ! D7    D(5,1,2,6)            180.0            -DE/DX =    0.0                 !
 ! D8    D(5,1,2,7)             60.0            -DE/DX =    0.0                 !
 ! D9    D(5,1,2,8)            -60.0            -DE/DX =    0.0                 !
 --------------------------------------------------------------------------------
 GradGradGradGradGradGradGradGradGradGradGradGradGradGradGradGradGradGrad

 Leave Link  103 at Sun Sep 28 21:05:29 2025, MaxMem=  1572864000 cpu:               0.1 elap:               0.0
 (Enter /software/sse/easybuild/prefix/software/Gaussian/16.C.01-avx2-nsc1/g16/l9999.exe)

 ----------------------------------------------------------------------

 Electric dipole moment (input orientation):
 (Debye = 10**-18 statcoulomb cm , SI units = C m)
                  (au)            (Debye)         (10**-30 SI)
   Tot        0.842925D+00      0.214250D+01      0.714662D+01
   x         -0.839216D+00     -0.213307D+01     -0.711517D+01
   y          0.000000D+00      0.000000D+00      0.000000D+00
   z         -0.789932D-01     -0.200781D+00     -0.669732D+00

 Dipole polarizability, Alpha (input orientation).
 (esu units = cm**3 , SI units = C**2 m**2 J**-1)
 Alpha(0;0):
               (au)            (10**-24 esu)      (10**-40 SI)
   iso        0.191462D+02      0.283718D+01      0.315678D+01
   aniso      0.287422D+01      0.425916D+00      0.473895D+00
   xx         0.210371D+02      0.311738D+01      0.346855D+01
   yx        -0.270152D-04     -0.400324D-05     -0.445421D-05
   yy         0.181881D+02      0.269520D+01      0.299882D+01
   zx         0.268167D+00      0.397383D-01      0.442148D-01
   zy         0.000000D+00      0.000000D+00      0.000000D+00
   zz         0.182134D+02      0.269894D+01      0.300298D+01

 First dipole hyperpolarizability, Beta (input orientation).
 ||, _|_  parallel and perpendicular components, (z) with respect to z axis,
 vector components x,y,z.  Values do not include the 1/n! factor of 1/2.
 (esu units = statvolt**-1 cm**4 , SI units = C**3 m**3 J**-2)
 Beta(0;0,0):
               (au)            (10**-30 esu)      (10**-50 SI)
   || (z)     0.477647D+00      0.412649D-02      0.153151D-02
   _|_(z)     0.159216D+00      0.137550D-02      0.510503D-03
   x          0.253723D+02      0.219197D+00      0.813529D-01
   y         -0.240591D-03     -0.207852D-05     -0.771422D-06
   z          0.238823D+01      0.206325D-01      0.765754D-02
   ||         0.509690D+01      0.440332D-01      0.163425D-01
   xxx        0.295376D+01      0.255182D-01      0.947084D-02
   xxy        0.768255D-02      0.663712D-04      0.246330D-04
   yxy        0.260356D+01      0.224927D-01      0.834795D-02
   yyy       -0.872431D+00     -0.753712D-02     -0.279733D-02
   xxz       -0.260916D+00     -0.225411D-02     -0.836591D-03
   yxz       -0.813692D-01     -0.702967D-03     -0.260899D-03
   yyz        0.209770D+01      0.181225D-01      0.672600D-02
   zxz        0.290012D+01      0.250548D-01      0.929884D-02
   zyz        0.864668D+00      0.747006D-02      0.277244D-02
   zzz       -0.104071D+01     -0.899092D-02     -0.333689D-02

 ----------------------------------------------------------------------

 Dipole orientation:
     7         -0.00000482          0.00005559          1.32042777
     6         -0.00000482          0.00005559         -1.52035007
     1         -1.10247076         -1.38902215          2.01377071
     1         -0.65174846          1.64935798          2.01377071
     1          1.75420477         -0.26016905          2.01377071
     1         -1.91312678          0.28385377         -2.15482953
     1          0.71077974         -1.79865571         -2.15482953
     1          1.20233259          1.51496872         -2.15482953

 Electric dipole moment (dipole orientation):
 (Debye = 10**-18 statcoulomb cm , SI units = C m)
                  (au)            (Debye)         (10**-30 SI)
   Tot        0.842925D+00      0.214250D+01      0.714662D+01
   x          0.000000D+00      0.000000D+00      0.000000D+00
   y          0.000000D+00      0.000000D+00      0.000000D+00
   z          0.842925D+00      0.214250D+01      0.714662D+01

 Dipole polarizability, Alpha (dipole orientation).
 (esu units = cm**3 , SI units = C**2 m**2 J**-1)
 Alpha(0;0):
               (au)            (10**-24 esu)      (10**-40 SI)
   iso        0.191462D+02      0.283718D+01      0.315678D+01
   aniso      0.287422D+01      0.425916D+00      0.473895D+00
   xx         0.181881D+02      0.269520D+01      0.299882D+01
   yx         0.000000D+00      0.000000D+00      0.000000D+00
   yy         0.181881D+02      0.269520D+01      0.299882D+01
   zx         0.000000D+00      0.000000D+00      0.000000D+00
   zy         0.000000D+00      0.000000D+00      0.000000D+00
   zz         0.210624D+02      0.312112D+01      0.347271D+01

 First dipole hyperpolarizability, Beta (dipole orientation).
 ||, _|_  parallel and perpendicular components, (z) with respect to z axis,
 vector components x,y,z.  Values do not include the 1/n! factor of 1/2.
 (esu units = statvolt**-1 cm**4 , SI units = C**3 m**3 J**-2)
 Beta(0;0,0):
               (au)            (10**-30 esu)      (10**-50 SI)
   || (z)    -0.509690D+01     -0.440332D-01     -0.163425D-01
   _|_(z)    -0.169897D+01     -0.146777D-01     -0.544750D-02
   x          0.000000D+00      0.000000D+00      0.000000D+00
   y          0.000000D+00      0.000000D+00      0.000000D+00
   z         -0.254845D+02     -0.220166D+00     -0.817125D-01
   ||         0.509690D+01      0.440332D-01      0.163425D-01
   xxx       -0.184446D+01     -0.159347D-01     -0.591400D-02
   xxy        0.872409D+00      0.753694D-02      0.279726D-02
   yxy        0.184446D+01      0.159347D-01      0.591400D-02
   yyy       -0.872409D+00     -0.753694D-02     -0.279726D-02
   xxz       -0.278869D+01     -0.240921D-01     -0.894156D-02
   yxz        0.000000D+00      0.000000D+00      0.000000D+00
   yyz       -0.278869D+01     -0.240921D-01     -0.894156D-02
   zxz        0.000000D+00      0.000000D+00      0.000000D+00
   zyz        0.000000D+00      0.000000D+00      0.000000D+00
   zzz       -0.291745D+01     -0.252045D-01     -0.935438D-02

 ----------------------------------------------------------------------

 Test job not archived.
 1\1\NSC-N397\Freq\RHF\Aug-CC-pVTZ\C1H6N1(1+)\X_DAVVA\28-Sep-2025\0\\#P
  Geom=AllCheck Guess=TCheck SCRF=Check Test GenChk RHF/Aug-CC-pVTZ Fre
 q\\methylammonium\\1,1\N,-0.6956650531,0.0000360158,-0.0654837188\C,0.
 8009942813,0.0000218239,0.0753929657\H,-1.0062870551,-0.7350348561,-0.
 680692715\H,-1.0286220973,0.8728091372,-0.4432455606\H,-1.1479459245,-
 0.1376558423,0.8243366503\H,1.2301437533,0.1501876799,-0.9010693487\H,
 1.1000104807,-0.9518144753,0.4813420724\H,1.0756521257,0.8016827578,0.
 7402993656\\Version=ES64L-G16RevC.01\HF=-95.6192435\RMSD=2.011e-09\RMS
 F=8.216e-09\ZeroPoint=0.0841828\Thermal=0.087584\ETot=-95.5316595\HTot
 =-95.5307153\GTot=-95.5571621\Dipole=-0.8392158,0.000008,-0.0789932\Di
 poleDeriv=-0.5386098,0.0000034,-0.0334739,0.0000034,-0.1829869,0.00000
 03,-0.0334738,0.0000003,-0.1861377,0.7198789,-0.0000053,0.0527941,-0.0
 000053,0.1589993,-0.0000005,0.0527942,-0.0000005,0.1639687,0.2334345,0
 .0255963,0.0187121,0.0378927,0.2878002,0.0325751,0.0285143,0.0314176,0
 .2791399,0.2353972,-0.0317035,0.0110765,-0.0463033,0.3027118,-0.024720
 7,0.0168715,-0.0233465,0.2622656,0.2470211,0.0061084,-0.0417755,0.0084
 118,0.2526877,-0.0078543,-0.0573726,-0.008071,0.3006658,0.0371552,0.00
 35563,-0.0311049,-0.0011436,0.1096085,0.0149274,0.0007194,0.0153694,0.
 0078242,0.0333983,-0.0347314,0.0064035,-0.0049421,0.0226269,0.034941,-
 0.0054205,0.0321372,0.0985627,0.0323246,0.0311759,0.017368,0.0060864,0
 .0485526,-0.0498683,-0.0026323,-0.0475065,0.0737108\Polar=21.0371145,-
 0.000027,18.1881342,0.2681672,-0.0000025,18.2133761\PolarDeriv=-4.0887
 964,0.0086812,1.7483557,-0.7852539,-0.0914182,2.0441201,0.0086829,1.92
 26435,-0.9801859,-0.0914184,2.262496,0.9715057,-0.8016593,-0.0914183,2
 .2460909,2.2184085,0.9715042,-1.472324,4.490376,-0.0126114,-2.3249133,
 0.9082811,0.133055,-2.784652,-0.0126082,-1.98618,1.4265658,0.133055,-3
 .216446,-1.4139519,0.8763971,0.133055,-3.24833,-2.4459184,-1.4139551,2
 .3136503,-1.2661241,-1.0132695,-0.9515277,-0.8169905,-0.414062,-0.8642
 81,-1.6632923,-1.3507969,-2.836655,-0.639729,-1.5200672,-1.5613519,-1.
 3189184,-0.5947866,-1.6200708,-1.2167319,-1.3675099,-2.1829497,-1.3799
 507,1.2454236,-1.2119176,-0.5111862,0.3419036,-0.6742365,2.0253861,-1.
 6988457,3.9951949,0.5228899,-1.2323066,1.176204,-0.8050221,0.4687655,-
 1.2678151,-0.913388,0.9542419,-1.0911415,-2.0538432,-0.2397258,-0.6438
 704,1.5596783,0.1523808,-1.5523209,-0.3696753,-0.7911214,-0.298369,0.1
 970614,0.5643062,-0.467341,2.4527179,0.2062436,0.7970941,-1.994167,-0.
 439211,4.0385365,1.935061,0.2457219,0.8754655,-1.6402945,-0.1739776,1.
 9187871,0.3836908,0.8710112,0.3318932,-0.2092381,-0.5884207,0.6953803,
 -2.5735245,-0.2165121,-0.9986076,2.1468124,0.6380586,-5.5371839,1.2406
 305,-1.2776083,1.393719,0.4843413,-0.3361334,0.872221,-2.1176017,1.687
 9235,-5.2995939,-0.4792006,1.6764245,-1.5263447,0.8138174,-0.4363137,1
 .8012896,0.9708195,-1.1285291,1.2648305,1.1226468,1.0433882,1.1146888,
 0.8014246,0.388252,1.0403617,1.7454176,1.3453653,3.66115,0.5665795,2.0
 540134,2.1258992,1.3561918,0.5309665,2.2903487,1.2341651,1.7854004,2.6
 665815\HyperPolar=2.9537645,0.0076825,2.6035597,-0.872431,-0.260916,-0
 .0813692,2.0977035,2.9001226,0.8646682,-1.0407098\Quadrupole=1.6107442
 ,-0.8161231,-0.7946211,-0.000023,0.2284348,-0.0000022\PG=C03V [C3(C1N1
 ),3SGV(H2)]\NImag=0\\0.60248228,0.00000214,0.82862234,-0.02128598,0.00
 000020,0.82661874,-0.17694379,0.00000059,-0.00589360,0.45966405,0.0000
 0059,-0.11433077,0.00000006,0.00000231,0.70296726,-0.00589360,0.000000
 06,-0.11488552,-0.02290150,0.00000022,0.70081160,-0.10357367,-0.088081
 59,-0.07286712,-0.00828546,-0.03055384,-0.02520410,0.10417802,-0.08145
 135,-0.28045139,-0.17112549,-0.00216839,0.00533040,0.00347028,0.088855
 39,0.29035582,-0.06758176,-0.17174963,-0.21867433,-0.00257638,0.000798
 22,0.00111481,0.07432559,0.18636323,0.22262223,-0.10891422,0.11197949,
 -0.04760152,-0.00927547,0.03611119,-0.01527423,0.00508423,-0.01219838,
 0.00767851,0.10978390,0.10410726,-0.36447228,0.12453778,0.00240850,0.0
 0721822,-0.00235218,0.01021534,-0.02479143,0.01362828,-0.11355649,0.38
 185079,-0.04447686,0.12527874,-0.12931289,-0.00189689,0.00082004,0.000
 21699,0.01152926,-0.02529406,0.01476098,0.04909397,-0.13563394,0.12552
 138,-0.14386047,-0.02390142,0.15540599,-0.01442035,-0.00555692,0.03620
 375,0.00743869,0.00441895,-0.01343327,0.00802084,-0.00010730,-0.015039
 93,0.14671827,-0.02265943,-0.08259552,0.04658738,-0.00023967,0.0008828
 1,-0.00111806,0.01745728,0.00841352,-0.03027921,-0.01978661,-0.0014834
 3,0.03579973,0.02470477,0.07489926,0.14699597,0.04647056,-0.37624341,0
 .00019869,-0.00161822,0.01169727,0.01097691,0.00530585,-0.02079843,0.0
 0551846,0.00083934,-0.01148363,-0.15979281,-0.05072894,0.39553854,-0.0
 2669151,-0.00626889,0.03993596,-0.09949418,-0.01423373,0.09285155,0.00
 144307,-0.00013447,0.00094335,0.00143176,-0.00010872,0.00096831,-0.007
 23972,0.00037239,-0.00324034,0.11707088,0.00070693,0.00021377,-0.00121
 215,-0.01665761,-0.06793514,0.03887883,-0.00053491,-0.00012653,0.00069
 165,0.00024967,0.00019492,-0.00078400,0.00035548,0.00041031,-0.0000298
 6,0.01746722,0.06081240,-0.00729990,-0.00186832,0.01198937,0.10926458,
 0.03910683,-0.31649136,0.00103594,0.00024422,0.00058699,0.00116048,-0.
 00033261,0.00027687,-0.00312581,-0.00002827,0.00029836,-0.11238045,-0.
 04189570,0.32750328,-0.02172946,0.04077327,-0.01823141,-0.07720962,0.0
 5741160,-0.02422307,0.00169361,0.00074195,-0.00011078,-0.00786333,-0.0
 0230847,0.00013842,0.00164637,0.00085243,-0.00021321,0.00694903,-0.014
 07864,0.00373649,0.09162531,-0.00344206,0.00760876,-0.00333417,0.07277
 508,-0.30194204,0.10210313,0.00079633,0.00060210,0.00016119,-0.0022012
 6,0.00077683,-0.00035638,0.00106459,-0.00015490,-0.00014023,-0.0002663
 4,-0.00066503,-0.00004929,-0.07539924,0.31271539,-0.00068138,0.0008275
 4,-0.00036767,-0.03032117,0.10065707,-0.10476903,-0.00047924,0.0006412
 0,-0.00039217,0.00009586,-0.00036647,0.00055544,0.00004944,-0.00064533
 ,0.00041207,-0.01017226,0.02889645,-0.00841077,0.03343303,-0.10963478,
 0.10104586,-0.02076916,-0.03450361,-0.02946232,-0.07403518,-0.04318120
 ,-0.03555880,-0.00797849,0.00193631,0.00075474,0.00173229,-0.00065011,
 -0.00031627,0.00169637,-0.00070116,-0.00044367,0.00653067,0.01249188,0
 .00760867,0.00488808,0.00667289,0.00807572,0.08793543,0.00273591,0.005
 40510,0.00454639,-0.05612080,-0.23219074,-0.14098227,0.00184601,0.0006
 6752,0.00038626,-0.00059761,0.00070639,0.00016987,-0.00097815,-0.00037
 205,-0.00009849,0.00317254,0.00709531,0.00482315,-0.00799290,-0.018941
 11,-0.02037567,0.05793500,0.23762958,0.00022351,0.00104085,0.00087570,
 -0.04587372,-0.13976421,-0.17769477,0.00068276,0.00039476,0.00077992,-
 0.00067153,-0.00032019,-0.00053515,-0.00026737,0.00041270,0.00057922,-
 0.00890611,-0.02454521,-0.01575274,0.00547054,0.01125053,0.01192626,0.
 04934192,0.15153077,0.17982155\\0.,0.,0.,-0.00000001,0.,0.,0.,-0.00000
 002,-0.00000001,0.,0.00000002,0.,0.,0.,0.00000002,0.,0.,0.,0.,0.,0.,0.
 ,0.,0.\\\@


 ERWIN WITH HIS PSI CAN DO
 CALCULATIONS QUITE A FEW.
 BUT ONE THING HAS NOT BEEN SEEN
 JUST WHAT DOES PSI REALLY MEAN.
 -- WALTER HUCKEL, TRANS. BY FELIX BLOCH
 Job cpu time:       0 days  0 hours  3 minutes 39.6 seconds.
 Elapsed time:       0 days  0 hours  0 minutes 28.3 seconds.
 File lengths (MBytes):  RWF=     42 Int=      0 D2E=      0 Chk=     12 Scr=      1
 Normal termination of Gaussian 16 at Sun Sep 28 21:05:29 2025.
