 Entering Gaussian System, Link 0=/software/sse/easybuild/prefix/software/Gaussian/16.C.01-avx2-nsc1/g16/g16.orig
 Input=formate.wrap
 Output=formate.log
 Initial command:
 /software/sse/easybuild/prefix/software/Gaussian/16.C.01-avx2-nsc1/g16/l1.exe "/scratch/local/Gau-1362698.inp" -scrdir="/scratch/local/"
 Entering Link 1 = /software/sse/easybuild/prefix/software/Gaussian/16.C.01-avx2-nsc1/g16/l1.exe PID=   1362699.
  
 Copyright (c) 1988-2019, Gaussian, Inc.  All Rights Reserved.
  
 This is part of the Gaussian(R) 16 program.  It is based on
 the Gaussian(R) 09 system (copyright 2009, Gaussian, Inc.),
 the Gaussian(R) 03 system (copyright 2003, Gaussian, Inc.),
 the Gaussian(R) 98 system (copyright 1998, Gaussian, Inc.),
 the Gaussian(R) 94 system (copyright 1995, Gaussian, Inc.),
 the Gaussian 92(TM) system (copyright 1992, Gaussian, Inc.),
 the Gaussian 90(TM) system (copyright 1990, Gaussian, Inc.),
 the Gaussian 88(TM) system (copyright 1988, Gaussian, Inc.),
 the Gaussian 86(TM) system (copyright 1986, Carnegie Mellon
 University), and the Gaussian 82(TM) system (copyright 1983,
 Carnegie Mellon University). Gaussian is a federally registered
 trademark of Gaussian, Inc.
  
 This software contains proprietary and confidential information,
 including trade secrets, belonging to Gaussian, Inc.
  
 This software is provided under written license and may be
 used, copied, transmitted, or stored only in accord with that
 written license.
  
 The following legend is applicable only to US Government
 contracts under FAR:
  
                    RESTRICTED RIGHTS LEGEND
  
 Use, reproduction and disclosure by the US Government is
 subject to restrictions as set forth in subparagraphs (a)
 and (c) of the Commercial Computer Software - Restricted
 Rights clause in FAR 52.227-19.
  
 Gaussian, Inc.
 340 Quinnipiac St., Bldg. 40, Wallingford CT 06492
  
  
 ---------------------------------------------------------------
 Warning -- This program may not be used in any manner that
 competes with the business of Gaussian, Inc. or will provide
 assistance to any competitor of Gaussian, Inc.  The licensee
 of this program is prohibited from giving any competitor of
 Gaussian, Inc. access to this program.  By using this program,
 the user acknowledges that Gaussian, Inc. is engaged in the
 business of creating and licensing software in the field of
 computational chemistry and represents and warrants to the
 licensee that it is not a competitor of Gaussian, Inc. and that
 it will not use this program in any manner prohibited above.
 ---------------------------------------------------------------
  

 Cite this work as:
 Gaussian 16, Revision C.01,
 M. J. Frisch, G. W. Trucks, H. B. Schlegel, G. E. Scuseria, 
 M. A. Robb, J. R. Cheeseman, G. Scalmani, V. Barone, 
 G. A. Petersson, H. Nakatsuji, X. Li, M. Caricato, A. V. Marenich, 
 J. Bloino, B. G. Janesko, R. Gomperts, B. Mennucci, H. P. Hratchian, 
 J. V. Ortiz, A. F. Izmaylov, J. L. Sonnenberg, D. Williams-Young, 
 F. Ding, F. Lipparini, F. Egidi, J. Goings, B. Peng, A. Petrone, 
 T. Henderson, D. Ranasinghe, V. G. Zakrzewski, J. Gao, N. Rega, 
 G. Zheng, W. Liang, M. Hada, M. Ehara, K. Toyota, R. Fukuda, 
 J. Hasegawa, M. Ishida, T. Nakajima, Y. Honda, O. Kitao, H. Nakai, 
 T. Vreven, K. Throssell, J. A. Montgomery, Jr., J. E. Peralta, 
 F. Ogliaro, M. J. Bearpark, J. J. Heyd, E. N. Brothers, K. N. Kudin, 
 V. N. Staroverov, T. A. Keith, R. Kobayashi, J. Normand, 
 K. Raghavachari, A. P. Rendell, J. C. Burant, S. S. Iyengar, 
 J. Tomasi, M. Cossi, J. M. Millam, M. Klene, C. Adamo, R. Cammi, 
 J. W. Ochterski, R. L. Martin, K. Morokuma, O. Farkas, 
 J. B. Foresman, and D. J. Fox, Gaussian, Inc., Wallingford CT, 2019.
 
 ******************************************
 Gaussian 16:  ES64L-G16RevC.01  3-Jul-2019
                30-Sep-2025 
 ******************************************
 %mem=12000MB
 %nprocshared=16
 Will use up to   16 processors via shared memory.
 %mem=32Gb
 %chk=formate.chk
 ----------------------------------------------------------------------
 #P MP2/aug-cc-pvtz Opt=tight density=MP2 Pop=(MK,Hirshfeld) iop(6/33=2
 ) iop(6/42=6) maxdisk=128GB
 ----------------------------------------------------------------------
 1/7=10,18=20,19=15,38=1/1,3;
 2/9=110,12=2,17=6,18=5,40=1/2;
 3/5=16,6=1,7=10,11=9,25=1,30=1,71=1/1,2,3;
 4//1;
 5/5=2,38=5/2;
 8/6=4,10=1/1;
 9/15=2,16=-3/6;
 10/5=1/2;
 6/7=2,8=2,9=2,10=2,15=8,20=1,22=2,33=2,42=6,79=1/1,2;
 7/12=2/1,2,3,16;
 1/7=10,18=20,19=15/3(2);
 2/9=110/2;
 99//99;
 2/9=110/2;
 3/5=16,6=1,7=10,11=9,25=1,30=1,71=1/1,2,3;
 4/5=5,16=3,69=1/1;
 5/5=2,38=5/2;
 8/6=4,10=1/1;
 9/15=2,16=-3/6;
 10/5=1/2;
 7/12=2/1,2,3,16;
 1/7=10,18=20,19=15/3(-8);
 2/9=110/2;
 6/7=2,8=2,9=2,10=2,15=8,20=1,22=2,33=2,42=6,79=1/1,2;
 99/9=10/99;
 Leave Link    1 at Tue Sep 30 16:58:49 2025, MaxMem=  4294967296 cpu:               1.3 elap:               0.1
 (Enter /software/sse/easybuild/prefix/software/Gaussian/16.C.01-avx2-nsc1/g16/l101.exe)
 -------
 formate
 -------
 Symbolic Z-matrix:
 Charge = -1 Multiplicity = 1
 O                     0.        1.11548  -0.20564 
 O                     0.       -1.11548  -0.20564 
 C                     0.        0.        0.31006 
 H                     0.        0.        1.42988 
 
 ITRead=  0  0  0  0
 MicOpt= -1 -1 -1 -1
 NAtoms=      4 NQM=        4 NQMF=       0 NMMI=      0 NMMIF=      0
                NMic=       0 NMicF=      0.
                    Isotopes and Nuclear Properties:
 (Nuclear quadrupole moments (NQMom) in fm**2, nuclear magnetic moments (NMagM)
  in nuclear magnetons)

  Atom         1           2           3           4
 IAtWgt=          16          16          12           1
 AtmWgt=  15.9949146  15.9949146  12.0000000   1.0078250
 NucSpn=           0           0           0           1
 AtZEff=  -0.0000000  -0.0000000  -0.0000000  -0.0000000
 NQMom=    0.0000000   0.0000000   0.0000000   0.0000000
 NMagM=    0.0000000   0.0000000   0.0000000   2.7928460
 AtZNuc=   8.0000000   8.0000000   6.0000000   1.0000000
 Leave Link  101 at Tue Sep 30 16:58:49 2025, MaxMem=  4294967296 cpu:               5.0 elap:               0.3
 (Enter /software/sse/easybuild/prefix/software/Gaussian/16.C.01-avx2-nsc1/g16/l103.exe)

 GradGradGradGradGradGradGradGradGradGradGradGradGradGradGradGradGradGrad
 Berny optimization.
 Initialization pass.
                           ----------------------------
                           !    Initial Parameters    !
                           ! (Angstroms and Degrees)  !
 --------------------------                            --------------------------
 ! Name  Definition              Value          Derivative Info.                !
 --------------------------------------------------------------------------------
 ! R1    R(1,3)                  1.2289         estimate D2E/DX2                !
 ! R2    R(2,3)                  1.2289         estimate D2E/DX2                !
 ! R3    R(3,4)                  1.1198         estimate D2E/DX2                !
 ! A1    A(1,3,2)              130.3766         estimate D2E/DX2                !
 ! A2    A(1,3,4)              114.8117         estimate D2E/DX2                !
 ! A3    A(2,3,4)              114.8117         estimate D2E/DX2                !
 ! D1    D(1,3,4,2)            180.0            estimate D2E/DX2                !
 --------------------------------------------------------------------------------
 Trust Radius=3.00D-01 FncErr=1.00D-07 GrdErr=1.00D-07 EigMax=2.50D+02 EigMin=1.00D-04
 Number of steps in this run=     20 maximum allowed number of steps=    100.
 GradGradGradGradGradGradGradGradGradGradGradGradGradGradGradGradGradGrad

 Leave Link  103 at Tue Sep 30 16:58:50 2025, MaxMem=  4294967296 cpu:               0.2 elap:               0.0
 (Enter /software/sse/easybuild/prefix/software/Gaussian/16.C.01-avx2-nsc1/g16/l202.exe)
                          Input orientation:                          
 ---------------------------------------------------------------------
 Center     Atomic      Atomic             Coordinates (Angstroms)
 Number     Number       Type             X           Y           Z
 ---------------------------------------------------------------------
      1          8           0        0.000000    1.115480   -0.205640
      2          8           0        0.000000   -1.115480   -0.205640
      3          6           0        0.000000    0.000000    0.310060
      4          1           0        0.000000    0.000000    1.429880
 ---------------------------------------------------------------------
                    Distance matrix (angstroms):
                    1          2          3          4
     1  O    0.000000
     2  O    2.230960   0.000000
     3  C    1.228919   1.228919   0.000000
     4  H    1.979702   1.979702   1.119820   0.000000
 Stoichiometry    CHO2(1-)
 Framework group  C2V[C2(CH),SGV(O2)]
 Deg. of freedom     3
 Full point group                 C2V     NOp   4
 Largest Abelian subgroup         C2V     NOp   4
 Largest concise Abelian subgroup C2      NOp   2
                         Standard orientation:                         
 ---------------------------------------------------------------------
 Center     Atomic      Atomic             Coordinates (Angstroms)
 Number     Number       Type             X           Y           Z
 ---------------------------------------------------------------------
      1          8           0        0.000000    1.115480   -0.205640
      2          8           0       -0.000000   -1.115480   -0.205640
      3          6           0        0.000000   -0.000000    0.310060
      4          1           0        0.000000   -0.000000    1.429880
 ---------------------------------------------------------------------
 Rotational constants (GHZ):         111.7505513          12.6964323          11.4011065
 Leave Link  202 at Tue Sep 30 16:58:50 2025, MaxMem=  4294967296 cpu:               0.1 elap:               0.0
 (Enter /software/sse/easybuild/prefix/software/Gaussian/16.C.01-avx2-nsc1/g16/l301.exe)
 Standard basis: Aug-CC-pVTZ (5D, 7F)
 Ernie: Thresh=  0.10000D-02 Tol=  0.10000D-05 Strict=F.
 Ernie:  9 primitive shells out of 101 were deleted.
 There are    74 symmetry adapted cartesian basis functions of A1  symmetry.
 There are    25 symmetry adapted cartesian basis functions of A2  symmetry.
 There are    36 symmetry adapted cartesian basis functions of B1  symmetry.
 There are    55 symmetry adapted cartesian basis functions of B2  symmetry.
 There are    60 symmetry adapted basis functions of A1  symmetry.
 There are    23 symmetry adapted basis functions of A2  symmetry.
 There are    32 symmetry adapted basis functions of B1  symmetry.
 There are    46 symmetry adapted basis functions of B2  symmetry.
   161 basis functions,   243 primitive gaussians,   190 cartesian basis functions
    12 alpha electrons       12 beta electrons
       nuclear repulsion energy        63.6307329913 Hartrees.
 IExCor=    0 DFT=F Ex=HF Corr=None ExCW=0 ScaHFX=  1.000000
 ScaDFX=  1.000000  1.000000  1.000000  1.000000 ScalE2=  1.000000  1.000000
 IRadAn=      5 IRanWt=     -1 IRanGd=            0 ICorTp=0 IEmpDi=  4
 NAtoms=    4 NActive=    4 NUniq=    3 SFac= 1.78D+00 NAtFMM=   60 NAOKFM=F Big=F
 Integral buffers will be    131072 words long.
 Raffenetti 1 integral format.
 Two-electron integral symmetry is turned on.
 Leave Link  301 at Tue Sep 30 16:58:51 2025, MaxMem=  4294967296 cpu:               0.8 elap:               0.1
 (Enter /software/sse/easybuild/prefix/software/Gaussian/16.C.01-avx2-nsc1/g16/l302.exe)
 NPDir=0 NMtPBC=     1 NCelOv=     1 NCel=       1 NClECP=     1 NCelD=      1
         NCelK=      1 NCelE2=     1 NClLst=     1 CellRange=     0.0.
 One-electron integrals computed using PRISM.
 One-electron integral symmetry used in STVInt
 NBasis=   161 RedAO= T EigKep=  9.48D-05  NBF=    60    23    32    46
 NBsUse=   161 1.00D-06 EigRej= -1.00D+00 NBFU=    60    23    32    46
 Leave Link  302 at Tue Sep 30 16:58:51 2025, MaxMem=  4294967296 cpu:               1.9 elap:               0.1
 (Enter /software/sse/easybuild/prefix/software/Gaussian/16.C.01-avx2-nsc1/g16/l303.exe)
 DipDrv:  MaxL=1.
 Leave Link  303 at Tue Sep 30 16:58:52 2025, MaxMem=  4294967296 cpu:               0.4 elap:               0.0
 (Enter /software/sse/easybuild/prefix/software/Gaussian/16.C.01-avx2-nsc1/g16/l401.exe)
 ExpMin= 2.53D-02 ExpMax= 1.53D+04 ExpMxC= 5.22D+02 IAcc=3 IRadAn=         5 AccDes= 0.00D+00
 Harris functional with IExCor=  205 and IRadAn=       5 diagonalized for initial guess.
 HarFok:  IExCor=  205 AccDes= 0.00D+00 IRadAn=         5 IDoV= 1 UseB2=F ITyADJ=14
 ICtDFT=  3500011 ScaDFX=  1.000000  1.000000  1.000000  1.000000
 FoFCou: FMM=F IPFlag=           0 FMFlag=      100000 FMFlg1=           0
         NFxFlg=           0 DoJE=T BraDBF=F KetDBF=T FulRan=T
         wScrn=  0.000000 ICntrl=       500 IOpCl=  0 I1Cent=   200000004 NGrid=           0
         NMat0=    1 NMatS0=      1 NMatT0=    0 NMatD0=    1 NMtDS0=    0 NMtDT0=    0
 Petite list used in FoFCou.
 Harris En= -188.583950742697    
 JPrj=0 DoOrth=F DoCkMO=F.
 Initial guess orbital symmetries:
       Occupied  (A1) (B2) (A1) (A1) (B2) (A1) (A1) (B2) (B1) (A2)
                 (B2) (A1)
       Virtual   (B1) (A1) (A1) (B2) (B1) (A1) (A1) (B2) (A1) (A2)
                 (B1) (A1) (B2) (B2) (B1) (A1) (A1) (B2) (B1) (A1)
                 (A2) (A1) (A1) (B2) (B1) (B2) (A1) (B2) (A1) (A2)
                 (B2) (A1) (B1) (A2) (A1) (B1) (B1) (A1) (B2) (B2)
                 (A1) (B2) (B1) (A2) (A1) (A2) (A1) (B2) (A1) (B1)
                 (B2) (A1) (B1) (A1) (B2) (A2) (B2) (B1) (A1) (A2)
                 (A1) (A1) (B2) (B1) (B2) (A1) (B2) (A2) (A1) (B1)
                 (A2) (B1) (B1) (B2) (A1) (A1) (B2) (A1) (A2) (B2)
                 (B2) (A1) (A2) (B1) (B2) (A1) (B2) (A2) (B1) (A1)
                 (B2) (A1) (B1) (B1) (A1) (B2) (A1) (A2) (B1) (A1)
                 (B1) (B2) (A2) (A1) (A1) (B2) (A1) (A2) (A1) (B2)
                 (B1) (A1) (A2) (B2) (B1) (A1) (B1) (B2) (A1) (B2)
                 (B2) (A1) (A2) (B2) (B1) (A1) (A1) (B1) (A2) (B2)
                 (A1) (A2) (B1) (B2) (A1) (A2) (B2) (B1) (B1) (A2)
                 (B2) (A1) (B2) (A1) (A1) (B2) (B2) (A1) (A1)
 The electronic state of the initial guess is 1-A1.
 Leave Link  401 at Tue Sep 30 16:58:53 2025, MaxMem=  4294967296 cpu:               2.7 elap:               0.2
 (Enter /software/sse/easybuild/prefix/software/Gaussian/16.C.01-avx2-nsc1/g16/l502.exe)
 Keep R1 ints in memory in symmetry-blocked form, NReq=106592199.
 FoFCou: FMM=F IPFlag=           0 FMFlag=           0 FMFlg1=           0
         NFxFlg=           0 DoJE=F BraDBF=F KetDBF=F FulRan=T
         wScrn=  0.000000 ICntrl=       600 IOpCl=  0 I1Cent=           0 NGrid=           0
         NMat0=    1 NMatS0=  13041 NMatT0=    0 NMatD0=    1 NMtDS0=    0 NMtDT0=    0
 Petite list used in FoFCou.
 Closed shell SCF:
 Using DIIS extrapolation, IDIIS=  1040.
 NGot=  4294967296 LenX=  4273339532 LenY=  4273302991
 Requested convergence on RMS density matrix=1.00D-08 within 128 cycles.
 Requested convergence on MAX density matrix=1.00D-06.
 Requested convergence on             energy=1.00D-06.
 No special actions if energy rises.

 Cycle   1  Pass 1  IDiag  1:
 E= -188.086009819781    
 DIIS: error= 5.76D-02 at cycle   1 NSaved=   1.
 NSaved= 1 IEnMin= 1 EnMin= -188.086009819781     IErMin= 1 ErrMin= 5.76D-02
 ErrMax= 5.76D-02  0.00D+00 EMaxC= 1.00D-01 BMatC= 4.28D-01 BMatP= 4.28D-01
 IDIUse=3 WtCom= 4.24D-01 WtEn= 5.76D-01
 Coeff-Com:  0.100D+01
 Coeff-En:   0.100D+01
 Coeff:      0.100D+01
 Gap=     0.254 Goal=   None    Shift=    0.000
 GapD=    0.254 DampG=1.000 DampE=0.500 DampFc=0.5000 IDamp=-1.
 Damping current iteration by 5.00D-01
 RMSDP=2.40D-03 MaxDP=4.65D-02              OVMax= 1.55D-01

 Cycle   2  Pass 1  IDiag  1:
 E= -188.185789662121     Delta-E=       -0.099779842340 Rises=F Damp=T
 DIIS: error= 1.86D-02 at cycle   2 NSaved=   2.
 NSaved= 2 IEnMin= 2 EnMin= -188.185789662121     IErMin= 2 ErrMin= 1.86D-02
 ErrMax= 1.86D-02  0.00D+00 EMaxC= 1.00D-01 BMatC= 7.42D-02 BMatP= 4.28D-01
 IDIUse=3 WtCom= 8.14D-01 WtEn= 1.86D-01
 Coeff-Com: -0.443D+00 0.144D+01
 Coeff-En:   0.000D+00 0.100D+01
 Coeff:     -0.360D+00 0.136D+01
 Gap=     0.341 Goal=   None    Shift=    0.000
 RMSDP=7.97D-04 MaxDP=2.55D-02 DE=-9.98D-02 OVMax= 6.33D-02

 Cycle   3  Pass 1  IDiag  1:
 E= -188.274093402863     Delta-E=       -0.088303740742 Rises=F Damp=F
 DIIS: error= 6.14D-03 at cycle   3 NSaved=   3.
 NSaved= 3 IEnMin= 3 EnMin= -188.274093402863     IErMin= 3 ErrMin= 6.14D-03
 ErrMax= 6.14D-03  0.00D+00 EMaxC= 1.00D-01 BMatC= 3.01D-03 BMatP= 7.42D-02
 IDIUse=3 WtCom= 9.39D-01 WtEn= 6.14D-02
 Coeff-Com: -0.133D+00 0.221D+00 0.912D+00
 Coeff-En:   0.000D+00 0.000D+00 0.100D+01
 Coeff:     -0.125D+00 0.208D+00 0.917D+00
 Gap=     0.332 Goal=   None    Shift=    0.000
 RMSDP=1.70D-04 MaxDP=6.13D-03 DE=-8.83D-02 OVMax= 9.75D-03

 Cycle   4  Pass 1  IDiag  1:
 E= -188.275898537178     Delta-E=       -0.001805134315 Rises=F Damp=F
 DIIS: error= 1.25D-03 at cycle   4 NSaved=   4.
 NSaved= 4 IEnMin= 4 EnMin= -188.275898537178     IErMin= 4 ErrMin= 1.25D-03
 ErrMax= 1.25D-03  0.00D+00 EMaxC= 1.00D-01 BMatC= 1.02D-04 BMatP= 3.01D-03
 IDIUse=3 WtCom= 9.88D-01 WtEn= 1.25D-02
 Coeff-Com: -0.208D-01 0.260D-01 0.205D+00 0.790D+00
 Coeff-En:   0.000D+00 0.000D+00 0.000D+00 0.100D+01
 Coeff:     -0.205D-01 0.257D-01 0.203D+00 0.792D+00
 Gap=     0.329 Goal=   None    Shift=    0.000
 RMSDP=3.98D-05 MaxDP=9.98D-04 DE=-1.81D-03 OVMax= 4.22D-03

 Cycle   5  Pass 1  IDiag  1:
 E= -188.276005472811     Delta-E=       -0.000106935633 Rises=F Damp=F
 DIIS: error= 4.85D-04 at cycle   5 NSaved=   5.
 NSaved= 5 IEnMin= 5 EnMin= -188.276005472811     IErMin= 5 ErrMin= 4.85D-04
 ErrMax= 4.85D-04  0.00D+00 EMaxC= 1.00D-01 BMatC= 9.38D-06 BMatP= 1.02D-04
 IDIUse=3 WtCom= 9.95D-01 WtEn= 4.85D-03
 Coeff-Com:  0.122D-01-0.187D-01-0.110D+00-0.411D-01 0.116D+01
 Coeff-En:   0.000D+00 0.000D+00 0.000D+00 0.000D+00 0.100D+01
 Coeff:      0.121D-01-0.187D-01-0.109D+00-0.409D-01 0.116D+01
 Gap=     0.330 Goal=   None    Shift=    0.000
 RMSDP=2.11D-05 MaxDP=6.04D-04 DE=-1.07D-04 OVMax= 1.24D-03

 Cycle   6  Pass 1  IDiag  1:
 E= -188.276019437498     Delta-E=       -0.000013964687 Rises=F Damp=F
 DIIS: error= 8.37D-05 at cycle   6 NSaved=   6.
 NSaved= 6 IEnMin= 6 EnMin= -188.276019437498     IErMin= 6 ErrMin= 8.37D-05
 ErrMax= 8.37D-05  0.00D+00 EMaxC= 1.00D-01 BMatC= 3.84D-07 BMatP= 9.38D-06
 IDIUse=1 WtCom= 1.00D+00 WtEn= 0.00D+00
 Coeff-Com: -0.121D-02 0.226D-02 0.820D-02-0.158D-01-0.270D+00 0.128D+01
 Coeff:     -0.121D-02 0.226D-02 0.820D-02-0.158D-01-0.270D+00 0.128D+01
 Gap=     0.330 Goal=   None    Shift=    0.000
 RMSDP=5.25D-06 MaxDP=1.19D-04 DE=-1.40D-05 OVMax= 4.49D-04

 Cycle   7  Pass 1  IDiag  1:
 E= -188.276020362149     Delta-E=       -0.000000924651 Rises=F Damp=F
 DIIS: error= 1.42D-05 at cycle   7 NSaved=   7.
 NSaved= 7 IEnMin= 7 EnMin= -188.276020362149     IErMin= 7 ErrMin= 1.42D-05
 ErrMax= 1.42D-05  0.00D+00 EMaxC= 1.00D-01 BMatC= 1.70D-08 BMatP= 3.84D-07
 IDIUse=1 WtCom= 1.00D+00 WtEn= 0.00D+00
 Coeff-Com: -0.639D-03 0.982D-03 0.533D-02 0.533D-02-0.245D-01-0.200D+00
 Coeff-Com:  0.121D+01
 Coeff:     -0.639D-03 0.982D-03 0.533D-02 0.533D-02-0.245D-01-0.200D+00
 Coeff:      0.121D+01
 Gap=     0.330 Goal=   None    Shift=    0.000
 RMSDP=1.16D-06 MaxDP=2.79D-05 DE=-9.25D-07 OVMax= 1.12D-04

 Cycle   8  Pass 1  IDiag  1:
 E= -188.276020404921     Delta-E=       -0.000000042772 Rises=F Damp=F
 DIIS: error= 2.44D-06 at cycle   8 NSaved=   8.
 NSaved= 8 IEnMin= 8 EnMin= -188.276020404921     IErMin= 8 ErrMin= 2.44D-06
 ErrMax= 2.44D-06  0.00D+00 EMaxC= 1.00D-01 BMatC= 7.74D-10 BMatP= 1.70D-08
 IDIUse=1 WtCom= 1.00D+00 WtEn= 0.00D+00
 Coeff-Com:  0.129D-03-0.209D-03-0.118D-02 0.465D-04 0.171D-01-0.433D-01
 Coeff-Com: -0.136D+00 0.116D+01
 Coeff:      0.129D-03-0.209D-03-0.118D-02 0.465D-04 0.171D-01-0.433D-01
 Coeff:     -0.136D+00 0.116D+01
 Gap=     0.330 Goal=   None    Shift=    0.000
 RMSDP=2.51D-07 MaxDP=4.52D-06 DE=-4.28D-08 OVMax= 2.66D-05

 Cycle   9  Pass 1  IDiag  1:
 E= -188.276020406998     Delta-E=       -0.000000002077 Rises=F Damp=F
 DIIS: error= 6.96D-07 at cycle   9 NSaved=   9.
 NSaved= 9 IEnMin= 9 EnMin= -188.276020406998     IErMin= 9 ErrMin= 6.96D-07
 ErrMax= 6.96D-07  0.00D+00 EMaxC= 1.00D-01 BMatC= 5.04D-11 BMatP= 7.74D-10
 IDIUse=1 WtCom= 1.00D+00 WtEn= 0.00D+00
 Coeff-Com:  0.212D-04-0.308D-04-0.152D-03-0.163D-03-0.161D-02 0.199D-01
 Coeff-Com: -0.387D-01-0.283D+00 0.130D+01
 Coeff:      0.212D-04-0.308D-04-0.152D-03-0.163D-03-0.161D-02 0.199D-01
 Coeff:     -0.387D-01-0.283D+00 0.130D+01
 Gap=     0.330 Goal=   None    Shift=    0.000
 RMSDP=7.98D-08 MaxDP=1.55D-06 DE=-2.08D-09 OVMax= 8.44D-06

 Cycle  10  Pass 1  IDiag  1:
 E= -188.276020407159     Delta-E=       -0.000000000161 Rises=F Damp=F
 DIIS: error= 1.62D-07 at cycle  10 NSaved=  10.
 NSaved=10 IEnMin=10 EnMin= -188.276020407159     IErMin=10 ErrMin= 1.62D-07
 ErrMax= 1.62D-07  0.00D+00 EMaxC= 1.00D-01 BMatC= 2.02D-12 BMatP= 5.04D-11
 IDIUse=1 WtCom= 1.00D+00 WtEn= 0.00D+00
 Coeff-Com: -0.893D-05 0.141D-04 0.694D-04 0.621D-04-0.781D-04-0.427D-02
 Coeff-Com:  0.158D-01 0.307D-01-0.356D+00 0.131D+01
 Coeff:     -0.893D-05 0.141D-04 0.694D-04 0.621D-04-0.781D-04-0.427D-02
 Coeff:      0.158D-01 0.307D-01-0.356D+00 0.131D+01
 Gap=     0.330 Goal=   None    Shift=    0.000
 RMSDP=2.70D-08 MaxDP=6.31D-07 DE=-1.61D-10 OVMax= 1.88D-06

 Cycle  11  Pass 1  IDiag  1:
 E= -188.276020407166     Delta-E=       -0.000000000007 Rises=F Damp=F
 DIIS: error= 3.19D-08 at cycle  11 NSaved=  11.
 NSaved=11 IEnMin=11 EnMin= -188.276020407166     IErMin=11 ErrMin= 3.19D-08
 ErrMax= 3.19D-08  0.00D+00 EMaxC= 1.00D-01 BMatC= 9.59D-14 BMatP= 2.02D-12
 IDIUse=1 WtCom= 1.00D+00 WtEn= 0.00D+00
 Coeff-Com:  0.221D-05-0.360D-05-0.184D-04-0.130D-04 0.928D-04 0.667D-03
 Coeff-Com: -0.395D-02 0.218D-02 0.615D-01-0.449D+00 0.139D+01
 Coeff:      0.221D-05-0.360D-05-0.184D-04-0.130D-04 0.928D-04 0.667D-03
 Coeff:     -0.395D-02 0.218D-02 0.615D-01-0.449D+00 0.139D+01
 Gap=     0.330 Goal=   None    Shift=    0.000
 RMSDP=6.84D-09 MaxDP=1.29D-07 DE=-7.36D-12 OVMax= 3.89D-07

 SCF Done:  E(RHF) =  -188.276020407     A.U. after   11 cycles
            NFock= 11  Conv=0.68D-08     -V/T= 2.0005
 KE= 1.881764496217D+02 PE=-5.795359646926D+02 EE= 1.394527616725D+02
 Leave Link  502 at Tue Sep 30 16:58:54 2025, MaxMem=  4294967296 cpu:              15.0 elap:               1.0
 (Enter /software/sse/easybuild/prefix/software/Gaussian/16.C.01-avx2-nsc1/g16/l801.exe)
 ExpMin= 2.53D-02 ExpMax= 1.53D+04 ExpMxC= 5.22D+02 IAcc=3 IRadAn=         5 AccDes= 0.00D+00
 HarFok:  IExCor=  205 AccDes= 0.00D+00 IRadAn=         5 IDoV=-2 UseB2=F ITyADJ=14
 ICtDFT= 12500011 ScaDFX=  1.000000  1.000000  1.000000  1.000000
 DSYEVD-2 returned Info=          93 IAlg= 4 N=    46 NDim=    46 NE2=    93366966 trying  DSYEV.
 Largest valence mixing into a core orbital is  2.20D-04
 Largest core mixing into a valence orbital is  2.83D-05
 Range of M.O.s used for correlation:     4   161
 NBasis=   161 NAE=    12 NBE=    12 NFC=     3 NFV=     0
 NROrb=    158 NOA=     9 NOB=     9 NVA=   149 NVB=   149

 **** Warning!!: The largest alpha MO coefficient is  0.35745739D+02

 Leave Link  801 at Tue Sep 30 16:58:54 2025, MaxMem=  4294967296 cpu:               0.7 elap:               0.1
 (Enter /software/sse/easybuild/prefix/software/Gaussian/16.C.01-avx2-nsc1/g16/l906.exe)
 Frozen-core derivative calculation, NFC=   3 NFV=   0.
 FulOut=F Deriv=T AODrv=T NAtomX=     4
   MMem=         125  MDisk=           9 MDiskD=           9
  W3Min=      367080 MinDsk=      792425 NBas6D=         190
 NBas2D=       18625    NTT=       18145    LW2=     3500000
    MDV=  4294638180 MDiskM=      112964 NBas2p=       11199
 Fully direct method using O(ONN) memory.
 IMap=   1   2   3   4   5   6   7   8   9  10  11  12
 JobTyp=1 Pass  1:  I=   4 to  12 NPSUse= 16 ParTrn=T ParDer=T DoDerP=T.
 Spin components of T(2) and E(2):
     alpha-alpha T2 =       0.2402885042D-01 E2=     -0.8554467535D-01
     alpha-beta  T2 =       0.1260018540D+00 E2=     -0.4817240556D+00
     beta-beta   T2 =       0.2402885042D-01 E2=     -0.8554467535D-01
 The integrals were generated   1 times.
 ANorm=    0.1083540288D+01
 E2 =    -0.6528134063D+00 EUMP2 =    -0.18892883381350D+03
 Leave Link  906 at Tue Sep 30 16:58:59 2025, MaxMem=  4294967296 cpu:              78.7 elap:               5.0
 (Enter /software/sse/easybuild/prefix/software/Gaussian/16.C.01-avx2-nsc1/g16/l1002.exe)
 Minotr:  Closed shell wavefunction.
          Computing MP2/KS-MP2 derivatives.
          Using Z-Vector for PSCF gradient.
          Skipping F1 and S1 gradient terms here.
          IDoAtm=1111
          Frozen-core window.
          Direct CPHF calculation.
          Differentiating once with respect to electric field.
                with respect to dipole field.
          Differentiating once with respect to nuclear coordinates.
          Using symmetry in CPHF.
          Requested convergence is 1.0D-10 RMS, and 1.0D-09 maximum.
          NewPWx=F KeepS1=T KeepF1=T KeepIn=T MapXYZ=F SortEE=F KeepMc=T.
 Keep R1 ints in memory in symmetry-blocked form, NReq=106593231.
 FoFCou: FMM=F IPFlag=           0 FMFlag=           0 FMFlg1=           0
         NFxFlg=           0 DoJE=F BraDBF=F KetDBF=F FulRan=T
         wScrn=  0.000000 ICntrl=       600 IOpCl=  0 I1Cent=           0 NGrid=           0
         NMat0=    1 NMatS0=  13041 NMatT0=    0 NMatD0=    1 NMtDS0=    0 NMtDT0=    0
 Petite list used in FoFCou.
          MDV=    4294967296 using IRadAn=       5.
          Solving linear equations separately, MaxMat=       0.
          There are     1 degrees of freedom in the 1st order CPHF.  IDoFFX=0 NUNeed=     1.
 LinEq1:  Iter=  0 NonCon=     1 RMS=6.19D-03 Max=1.03D-01 NDo=     1
 AX will form     1 AO Fock derivatives at one time.
 LinEq1:  Iter=  1 NonCon=     1 RMS=1.43D-03 Max=1.53D-02 NDo=     1
 LinEq1:  Iter=  2 NonCon=     1 RMS=4.92D-04 Max=5.59D-03 NDo=     1
 LinEq1:  Iter=  3 NonCon=     1 RMS=1.68D-04 Max=1.79D-03 NDo=     1
 LinEq1:  Iter=  4 NonCon=     1 RMS=4.94D-05 Max=5.99D-04 NDo=     1
 LinEq1:  Iter=  5 NonCon=     1 RMS=9.17D-06 Max=1.19D-04 NDo=     1
 LinEq1:  Iter=  6 NonCon=     1 RMS=2.03D-06 Max=2.61D-05 NDo=     1
 LinEq1:  Iter=  7 NonCon=     1 RMS=4.01D-07 Max=4.18D-06 NDo=     1
 LinEq1:  Iter=  8 NonCon=     1 RMS=6.28D-08 Max=5.75D-07 NDo=     1
 LinEq1:  Iter=  9 NonCon=     1 RMS=1.04D-08 Max=1.43D-07 NDo=     1
 LinEq1:  Iter= 10 NonCon=     1 RMS=1.42D-09 Max=2.38D-08 NDo=     1
 LinEq1:  Iter= 11 NonCon=     1 RMS=1.74D-10 Max=2.72D-09 NDo=     1
 LinEq1:  Iter= 12 NonCon=     0 RMS=2.03D-11 Max=2.09D-10 NDo=     1
 Linear equations converged to 1.000D-10 1.000D-09 after    12 iterations.
 End of Minotr F.D. properties file   721 does not exist.
 End of Minotr F.D. properties file   722 does not exist.
 End of Minotr F.D. properties file   788 does not exist.
 Leave Link 1002 at Tue Sep 30 16:59:01 2025, MaxMem=  4294967296 cpu:              17.5 elap:               1.3
 (Enter /software/sse/easybuild/prefix/software/Gaussian/16.C.01-avx2-nsc1/g16/l601.exe)
 Copying SCF densities to generalized density rwf, IOpCl= 0 IROHF=0.
 SCF density gives NOpUse=  4 NOpAll=  4.

 **********************************************************************

            Population analysis using the MP2 Density.

 **********************************************************************

 Orbital symmetries:
 BldTbl:  Degeneracy threshold= 1.00D-02
       Occupied  (B2) (A1) (A1) (A1) (B2) (A1) (A1) (B2) (B1) (B2)
                 (A2) (A1)
       Virtual   (A1) (B2) (B1) (A1) (A1) (B2) (A1) (A2) (B1) (A1)
                 (B2) (A1) (B1) (B2) (B1) (A1) (B2) (A1) (A1) (B1)
                 (A2) (B2) (A1) (B1) (A1) (B2) (A1) (B2) (A1) (A2)
                 (A1) (B2) (B1) (A1) (A2) (B1) (B2) (A1) (B1) (B2)
                 (A1) (A2) (A1) (B1) (B2) (A1) (A2) (B2) (A1) (B1)
                 (B2) (B1) (A1) (B2) (A1) (A2) (B1) (A1) (B2) (A2)
                 (A1) (A1) (B2) (B1) (A1) (B2) (A2) (B2) (A1) (B1)
                 (A2) (B1) (B1) (A1) (B2) (A1) (A1) (B2) (A2) (B2)
                 (B2) (A1) (A2) (B1) (B2) (A1) (A2) (B2) (B1) (A1)
                 (B2) (B1) (A1) (B1) (A1) (A2) (A1) (B2) (B1) (A1)
                 (A1) (B1) (B2) (A1) (A2) (B2) (A1) (A2) (B2) (A1)
                 (B1) (B2) (A1) (B1) (A2) (B1) (A1) (B2) (A1) (B2)
                 (B2) (A1) (A2) (B2) (A1) (B1) (A1) (A2) (B1) (B2)
                 (A1) (B1) (A2) (B2) (A2) (A1) (B2) (B1) (B1) (A1)
                 (A2) (B2) (B2) (A1) (A1) (B2) (B2) (A1) (A1)
 The electronic state is 1-A1.
 Alpha  occ. eigenvalues --  -20.28273 -20.28269 -11.11225  -1.17014  -1.07005
 Alpha  occ. eigenvalues --   -0.55215  -0.43452  -0.39188  -0.35017  -0.20774
 Alpha  occ. eigenvalues --   -0.18754  -0.18514
 Alpha virt. eigenvalues --    0.14455   0.21294   0.21350   0.21670   0.28189
 Alpha virt. eigenvalues --    0.31771   0.32769   0.33769   0.36797   0.37102
 Alpha virt. eigenvalues --    0.39188   0.42003   0.42586   0.45840   0.50157
 Alpha virt. eigenvalues --    0.50249   0.51765   0.54158   0.58528   0.59365
 Alpha virt. eigenvalues --    0.62048   0.69987   0.70078   0.72236   0.78014
 Alpha virt. eigenvalues --    0.82781   0.89021   0.93087   0.94054   0.96085
 Alpha virt. eigenvalues --    1.01465   1.01927   1.05025   1.05513   1.07114
 Alpha virt. eigenvalues --    1.09928   1.12475   1.12893   1.14110   1.15993
 Alpha virt. eigenvalues --    1.21600   1.22685   1.23082   1.26564   1.28292
 Alpha virt. eigenvalues --    1.29036   1.32253   1.39144   1.43703   1.44479
 Alpha virt. eigenvalues --    1.45439   1.55881   1.57093   1.64459   1.65582
 Alpha virt. eigenvalues --    1.71142   1.78201   1.79171   1.82338   1.90077
 Alpha virt. eigenvalues --    1.93340   2.00945   2.08691   2.15279   2.23766
 Alpha virt. eigenvalues --    2.25779   2.42409   2.42845   2.46012   2.51634
 Alpha virt. eigenvalues --    2.58750   2.62209   2.64339   2.65368   2.65946
 Alpha virt. eigenvalues --    2.71202   2.74663   2.74851   2.83231   2.83353
 Alpha virt. eigenvalues --    2.87914   2.88343   2.91110   2.93310   2.95416
 Alpha virt. eigenvalues --    3.11573   3.13930   3.15275   3.16619   3.27654
 Alpha virt. eigenvalues --    3.30810   3.42331   3.42353   3.57614   3.66008
 Alpha virt. eigenvalues --    3.80849   3.82332   3.82779   4.08894   4.14458
 Alpha virt. eigenvalues --    4.23855   4.28297   4.30888   4.32598   4.34559
 Alpha virt. eigenvalues --    4.53448   4.56860   4.57314   4.82540   4.86771
 Alpha virt. eigenvalues --    4.88748   5.24143   5.28523   5.30400   5.35924
 Alpha virt. eigenvalues --    5.46860   5.49666   5.50520   5.87947   6.17257
 Alpha virt. eigenvalues --    6.52978   6.56369   6.85001   6.85986   6.87982
 Alpha virt. eigenvalues --    6.88168   7.10509   7.10917   7.11840   7.21940
 Alpha virt. eigenvalues --    7.34102   7.35196   7.42427   7.43929   7.47228
 Alpha virt. eigenvalues --    7.49392   7.53549   7.57129   7.80874   7.83185
 Alpha virt. eigenvalues --    7.85739   7.87814   7.94428   8.06681   8.21952
 Alpha virt. eigenvalues --    8.34281  14.15723  16.07282  16.87591
          Condensed to atoms (all electrons):
               1          2          3          4
     1  O    8.504404  -0.152089   0.325652  -0.089376
     2  O   -0.152089   8.504404   0.325652  -0.089376
     3  C    0.325652   0.325652   5.325085   0.196483
     4  H   -0.089376  -0.089376   0.196483   0.632213
 Mulliken charges:
               1
     1  O   -0.588591
     2  O   -0.588591
     3  C   -0.172873
     4  H    0.350055
 Sum of Mulliken charges =  -1.00000
 Mulliken charges with hydrogens summed into heavy atoms:
               1
     1  O   -0.588591
     2  O   -0.588591
     3  C    0.177182
 DipInt: DoE/N= T F RetVal/Mat= T F Init=T NMatP=  1 IDeriv=0 Min/MaxMlt=  0  4
 Entering OneElI...
 OneElI was handed  4294872655 working-precision words.
 Multipole integrals L=0 to 4 MinM= 0 MaxM= 0.
 Requested accuracy = 0.1000D-12
 ShPair: Thresh= 1.00D-13 NBox=     0 BxSize= 0.00D+00 RnKept= 4.22D+00
         NSMCal=                 1326 NSMKep=                1325
 PrmmSu-InSpLW:  IPartL=    0 NPrtUS=    1 NPrtUL=    1 DoSpLW=F IThBeg=    0 IThEnd=    0 NThAct=    1.
 PrSmSu:  IncTry=   512 NBBP=           1325 NTPThr=   100 NPartT=    1 Incr=          13 LDynOK=F GPUOK=F.
 PrsmSu:  NPrtUS=   1 ThrOK=F IAlg=2 LenDen=           0 ISkipM=0 DoSpLW=F IThBeg=    0 IThEnd=    0.
 Prism:   IPart=     0 DynPar=F LinDyn=F Incr=          13.
 PRISM was handed  4294757923 working-precision words and  1325 shell-pairs
 IPart=  0 NShTot=        1325 NBatch=          49 AvBLen=        27.0
 PrsmSu-ThDecC:  IPartSL=    0    0 NPrtUSL=    1    1 IThBeg=    0 IThEnd=    0 CPU=   -1 GPU=   -1 NThAct=    1.
 PrSmSu:  NxtVal=             14.
 Electronic moments (au):
        -24.00000000          0.00000000          0.00000000          0.53555910
        -14.41713314        -92.89127715        -27.69902813         -0.00000000
         -0.00000000          0.00000000          0.00000000          0.00000000
        -22.90932134          0.00000000          0.00000000         -0.70670286
          0.00000000          0.00000000         28.32269628          0.00000000
        -58.67054980       -685.44829485       -188.38956656         -0.00000000
         -0.00000000         -0.00000000         -0.00000000         -0.00000000
         -0.00000000        -67.17262195        -30.95916624        -89.58999666
         -0.00000000         -0.00000000         -0.00000000
 Electronic spatial extent (au):  <R**2>=            135.0074
 DipInt: DoE/N= F T RetVal/Mat= T F Init=T NMatP=  1 IDeriv=0 Min/MaxMlt=  0  4
 Nuclear    moments (au):
         23.00000000         -0.00000000         -0.00000000          0.00000000
          0.00000000         71.09536574         11.77731819          0.00000000
          0.00000000         -0.00000000         -0.00000000         -0.00000000
         19.99655453         -0.00000000         -0.00000000         -0.00000000
         -0.00000000         -0.00000000        -27.62789234         -0.00000000
          0.00000000        315.90943935         54.38023344          0.00000000
          0.00000000          0.00000000         -0.00000000          0.00000000
         -0.00000000          0.00000000          0.00000000         10.73628959
          0.00000000          0.00000000          0.00000000
 Total      moments (au):
         -1.00000000          0.00000000          0.00000000          0.53555910
        -14.41713314        -21.79591142        -15.92170994         -0.00000000
         -0.00000000          0.00000000          0.00000000          0.00000000
         -2.91276681          0.00000000          0.00000000         -0.70670286
          0.00000000          0.00000000          0.69480394          0.00000000
        -58.67054980       -369.53885550       -134.00933312         -0.00000000
         -0.00000000         -0.00000000         -0.00000000         -0.00000000
         -0.00000000        -67.17262195        -30.95916624        -78.85370707
         -0.00000000         -0.00000000         -0.00000000
 Traceless Quadrup. (au):
          2.96111836         -4.41765992          1.45654156         -0.00000000
         -0.00000000          0.00000000
 Charge=             -1.0000 electrons
 Dipole moment (field-independent basis, Debye):
    X=              0.0000    Y=              0.0000    Z=              1.3613  Tot=              1.3613
 Quadrupole moment (field-independent basis, Debye-Ang):
   XX=            -19.3915   YY=            -29.3162   ZZ=            -21.4152
   XY=             -0.0000   XZ=             -0.0000   YZ=              0.0000
 Traceless Quadrupole moment (field-independent basis, Debye-Ang):
   XX=              3.9828   YY=             -5.9419   ZZ=              1.9591
   XY=             -0.0000   XZ=             -0.0000   YZ=              0.0000
 Octapole moment (field-independent basis, Debye-Ang**2):
  XXX=              0.0000  YYY=              0.0000  ZZZ=             -2.0732  XYY=              0.0000
  XXY=              0.0000  XXZ=             -0.5030  XZZ=              0.0000  YZZ=              0.0000
  YYZ=              0.4945  XYZ=              0.0000
 Hexadecapole moment (field-independent basis, Debye-Ang**3):
 XXXX=            -22.0981 YYYY=           -139.1861 ZZZZ=            -50.4743 XXXY=             -0.0000
 XXXZ=             -0.0000 YYYX=             -0.0000 YYYZ=             -0.0000 ZZZX=             -0.0000
 ZZZY=             -0.0000 XXYY=            -25.3004 XXZZ=            -11.6607 YYZZ=            -29.7001
 XXYZ=             -0.0000 YYXZ=             -0.0000 ZZXY=             -0.0000
 N-N= 6.363073299126D+01 E-N=-5.796680484165D+02  KE= 1.889778711240D+02
 Symmetry A1   KE= 1.073284220914D+02
 Symmetry A2   KE= 4.500363953903D+00
 Symmetry B1   KE= 3.503788169047D+00
 Symmetry B2   KE= 7.364529690966D+01
 SetAtRh:  ITypeU=  23 NETotI=      -1 ICharg=  0 NETot=      23.
 StAtR1:  I=    1 I1=    1 IA=  8 C=   8.0 OKShel=TTT
                                                  SSP
                                                  224
 StAtR1:  I=    2 I1=    2 IA=  8 C=   8.0 OKShel=TTT
                                                  SSP
                                                  224
 StAtR1:  I=    3 I1=    3 IA=  6 C=   6.0 OKShel=TTT
                                                  SSP
                                                  222
 StAtR1:  I=    4 I1=    4 IA=  1 C=   1.0 OKShel=T
                                                  S
                                                  1
          I=    1 IA=  8 I1=    1 NAtG=23 NE=   8.000 C=   8.000 Err=-3.68D-11
          I=    2 IA=  8 I1=    2 NAtG=23 NE=   8.000 C=   8.000 Err=-3.68D-11
          I=    3 IA=  6 I1=    3 NAtG=23 NE=   6.000 C=   6.000 Err= 1.75D-11
          I=    4 IA=  1 I1=    4 NAtG=20 NE=   1.000 C=   1.000 Err= 2.80D-12
 Pruned (  99, 590) grid will be used in numerical quadrature.
 IPart=  0 IRanGd=          0 ScrnBf=T ScrnGd=T RCrit=4.00D+00 DoMicB=T.
 CutRad = 1000.00    CtRdIn =    0.00    XCrit =  15.00   ICut = 0
 Pruned (  99, 590) grid will be used in numerical quadrature.
 IPart=  0 Atom number   1 atomic number  8 has       23718 grid points.
 Pruned (  99, 590) grid will be used in numerical quadrature.
 Pruned (  99, 590) grid will be used in numerical quadrature.
 IPart=  1 IRanGd=          0 ScrnBf=T ScrnGd=T RCrit=4.00D+00 DoMicB=T.
 IPart=  0 Atom   1 batch    1 overlaps    4 atoms,    50 shells and     4 DB shells.   NGrid=      2408
 IPart=  8 IRanGd=          0 ScrnBf=T ScrnGd=T RCrit=4.00D+00 DoMicB=T.
 CutRad = 1000.00    CtRdIn =    0.00    XCrit =  15.00   ICut = 0
 CutRad = 1000.00    CtRdIn =    0.00    XCrit =  15.00   ICut = 0
 Pruned (  99, 590) grid will be used in numerical quadrature.
 Pruned (  99, 590) grid will be used in numerical quadrature.
 Pruned (  99, 590) grid will be used in numerical quadrature.
 IPart= 13 IRanGd=          0 ScrnBf=T ScrnGd=T RCrit=4.00D+00 DoMicB=T.
 CutRad = 1000.00    CtRdIn =    0.00    XCrit =  15.00   ICut = 0
 Symmetry reduced    86 angular points to    86 for atom    1.
 IPart=  2 IRanGd=          0 ScrnBf=T ScrnGd=T RCrit=4.00D+00 DoMicB=T.
 Pruned (  99, 590) grid will be used in numerical quadrature.
 Pruned (  99, 590) grid will be used in numerical quadrature.
 CutRad = 1000.00    CtRdIn =    0.00    XCrit =  15.00   ICut = 0
 IPart= 10 IRanGd=          0 ScrnBf=T ScrnGd=T RCrit=4.00D+00 DoMicB=T.
 Pruned (  99, 590) grid will be used in numerical quadrature.
 IPart= 12 IRanGd=          0 ScrnBf=T ScrnGd=T RCrit=4.00D+00 DoMicB=T.
 CutRad = 1000.00    CtRdIn =    0.00    XCrit =  15.00   ICut = 0
 IPart= 13 Atom number   1 atomic number  8 has       23718 grid points.
 Pruned (  99, 590) grid will be used in numerical quadrature.
 IPart= 13 Atom   1 batch    3 overlaps    4 atoms,    50 shells and     4 DB shells.   NGrid=      2114
 CutRad = 1000.00    CtRdIn =    0.00    XCrit =  15.00   ICut = 0
 IPart= 14 IRanGd=          0 ScrnBf=T ScrnGd=T RCrit=4.00D+00 DoMicB=T.
 Symmetry reduced   302 angular points to   302 for atom    1.
 CutRad = 1000.00    CtRdIn =    0.00    XCrit =  15.00   ICut = 0
 Pruned (  99, 590) grid will be used in numerical quadrature.
 Pruned (  99, 590) grid will be used in numerical quadrature.
 Pruned (  99, 590) grid will be used in numerical quadrature.
 Pruned (  99, 590) grid will be used in numerical quadrature.
 IPart=  7 IRanGd=          0 ScrnBf=T ScrnGd=T RCrit=4.00D+00 DoMicB=T.
 CutRad = 1000.00    CtRdIn =    0.00    XCrit =  15.00   ICut = 0
 Pruned (  99, 590) grid will be used in numerical quadrature.
 IPart= 12 Atom number   1 atomic number  8 has       23718 grid points.
 Pruned (  99, 590) grid will be used in numerical quadrature.
 IPart=  5 IRanGd=          0 ScrnBf=T ScrnGd=T RCrit=4.00D+00 DoMicB=T.
 CutRad = 1000.00    CtRdIn =    0.00    XCrit =  15.00   ICut = 0
 Pruned (  99, 590) grid will be used in numerical quadrature.
 IPart= 12 Atom   1 batch    4 overlaps    4 atoms,    50 shells and     4 DB shells.   NGrid=      1180
 IPart=  4 IRanGd=          0 ScrnBf=T ScrnGd=T RCrit=4.00D+00 DoMicB=T.
 IPart= 10 Atom number   1 atomic number  8 has       23718 grid points.
 Symmetry reduced   590 angular points to   590 for atom    1.
 Pruned (  99, 590) grid will be used in numerical quadrature.
 IPart=  1 Atom number   1 atomic number  8 has       23718 grid points.
 IPart= 14 Atom number   1 atomic number  8 has       23718 grid points.
 Pruned (  99, 590) grid will be used in numerical quadrature.
 IPart=  1 Atom   1 batch    7 overlaps    4 atoms,    50 shells and     4 DB shells.   NGrid=      1180
 IPart=  8 Atom number   1 atomic number  8 has       23718 grid points.
 Pruned (  99, 590) grid will be used in numerical quadrature.
 Pruned (  99, 590) grid will be used in numerical quadrature.
 IPart= 14 Atom   1 batch    6 overlaps    4 atoms,    50 shells and     4 DB shells.   NGrid=      1180
 IPart= 10 Atom   1 batch    5 overlaps    4 atoms,    50 shells and     4 DB shells.   NGrid=      1180
 IPart= 11 IRanGd=          0 ScrnBf=T ScrnGd=T RCrit=4.00D+00 DoMicB=T.
 Symmetry reduced   590 angular points to   590 for atom    1.
 IPart= 15 IRanGd=          0 ScrnBf=T ScrnGd=T RCrit=4.00D+00 DoMicB=T.
 CutRad = 1000.00    CtRdIn =    0.00    XCrit =  15.00   ICut = 0
 CutRad = 1000.00    CtRdIn =    0.00    XCrit =  15.00   ICut = 0
 Symmetry reduced   590 angular points to   590 for atom    1.
 Pruned (  99, 590) grid will be used in numerical quadrature.
 Pruned (  99, 590) grid will be used in numerical quadrature.
 IPart=  2 Atom number   1 atomic number  8 has       23718 grid points.
 IPart=  3 IRanGd=          0 ScrnBf=T ScrnGd=T RCrit=4.00D+00 DoMicB=T.
 CutRad = 1000.00    CtRdIn =    0.00    XCrit =  15.00   ICut = 0
 IPart=  6 IRanGd=          0 ScrnBf=T ScrnGd=T RCrit=4.00D+00 DoMicB=T.
 IPart=  2 Atom   1 batch    9 overlaps    4 atoms,    51 shells and     4 DB shells.   NGrid=      1180
 Pruned (  99, 590) grid will be used in numerical quadrature.
 IPart=  9 IRanGd=          0 ScrnBf=T ScrnGd=T RCrit=4.00D+00 DoMicB=T.
 IPart=  8 Atom   1 batch    2 overlaps    4 atoms,    50 shells and     4 DB shells.   NGrid=      2522
 CutRad = 1000.00    CtRdIn =    0.00    XCrit =  15.00   ICut = 0
 IPart= 11 Atom number   1 atomic number  8 has       23718 grid points.
 Symmetry reduced   590 angular points to   590 for atom    1.
 IPart= 11 Atom   1 batch   10 overlaps    4 atoms,    51 shells and     4 DB shells.   NGrid=      1180
 Symmetry reduced   194 angular points to   194 for atom    1.
 CutRad = 1000.00    CtRdIn =    0.00    XCrit =  15.00   ICut = 0
 Symmetry reduced   590 angular points to   590 for atom    1.
 Pruned (  99, 590) grid will be used in numerical quadrature.
 Pruned (  99, 590) grid will be used in numerical quadrature.
 Pruned (  99, 590) grid will be used in numerical quadrature.
 IPart=  5 Atom number   1 atomic number  8 has       23718 grid points.
 IPart=  7 Atom number   1 atomic number  8 has       23718 grid points.
 IPart=  5 Atom   1 batch   12 overlaps    4 atoms,    50 shells and     4 DB shells.   NGrid=       590
 Pruned (  99, 590) grid will be used in numerical quadrature.
 IPart= 15 Atom number   1 atomic number  8 has       23718 grid points.
 Symmetry reduced   590 angular points to   590 for atom    1.
 IPart= 15 Atom   1 batch   11 overlaps    4 atoms,    51 shells and     4 DB shells.   NGrid=      1180
 CutRad = 1000.00    CtRdIn =    0.00    XCrit =  15.00   ICut = 0
 Symmetry reduced   590 angular points to   590 for atom    1.
 Symmetry reduced   590 angular points to   590 for atom    1.
 IPart=  9 Atom number   1 atomic number  8 has       23718 grid points.
 Pruned (  99, 590) grid will be used in numerical quadrature.
 IPart=  9 Atom   1 batch   13 overlaps    4 atoms,    50 shells and     4 DB shells.   NGrid=       604
 IPart=  6 Atom number   1 atomic number  8 has       23718 grid points.
 Symmetry reduced   302 angular points to   302 for atom    1.
 IPart=  6 Atom   1 batch   14 overlaps    4 atoms,    50 shells and     4 DB shells.   NGrid=       604
 IPart=  7 Atom   1 batch    8 overlaps    4 atoms,    51 shells and     4 DB shells.   NGrid=      1180
 Symmetry reduced   302 angular points to   302 for atom    1.
 Symmetry reduced   590 angular points to   590 for atom    1.
 Pruned (  99, 590) grid will be used in numerical quadrature.
 IPart=  3 Atom number   1 atomic number  8 has       23718 grid points.
 IPart=  3 Atom   1 batch   15 overlaps    4 atoms,    47 shells and     4 DB shells.   NGrid=       604
 Symmetry reduced   302 angular points to   302 for atom    1.
 Pruned (  99, 590) grid will be used in numerical quadrature.
 IPart=  4 Atom number   1 atomic number  8 has       23718 grid points.
 IPart=  4 Atom   1 batch   16 overlaps    4 atoms,    45 shells and     4 DB shells.   NGrid=       604
 Symmetry reduced   302 angular points to   302 for atom    1.
 IPart=  4 Atom   1 batch   17 overlaps    4 atoms,    44 shells and     4 DB shells.   NGrid=       604
 IPart=  3 Atom   1 batch   18 overlaps    4 atoms,    36 shells and     4 DB shells.   NGrid=       604
 IPart=  5 Atom   1 batch   19 overlaps    4 atoms,    29 shells and     4 DB shells.   NGrid=       604
 Symmetry reduced   302 angular points to   302 for atom    1.
 IPart=  9 Atom   1 batch   20 overlaps    4 atoms,    18 shells and     3 DB shells.   NGrid=       604
 IPart=  6 Atom   1 batch   21 overlaps    4 atoms,    12 shells and     2 DB shells.   NGrid=       604
 IPart=  9 Atom   1 batch   22 overlaps    4 atoms,     5 shells and     0 DB shells.   NGrid=       604
 IPart=  6 Atom   1 batch   23 overlaps    4 atoms,     1 shells and     0 DB shells.   NGrid=       604
 Pruned (  99, 590) grid will be used in numerical quadrature.
 IPart=  6 Atom number   2 atomic number  8 has       23718 grid points.
 Pruned (  99, 590) grid will be used in numerical quadrature.
 IPart=  6 Atom   2 batch    1 overlaps    4 atoms,    50 shells and     4 DB shells.   NGrid=      2408
 IPart=  5 Atom number   2 atomic number  8 has       23718 grid points.
 Pruned (  99, 590) grid will be used in numerical quadrature.
 Symmetry reduced    86 angular points to    86 for atom    2.
 IPart=  9 Atom number   2 atomic number  8 has       23718 grid points.
 IPart=  5 Atom   2 batch    2 overlaps    4 atoms,    50 shells and     4 DB shells.   NGrid=      2522
 IPart=  9 Atom   2 batch    3 overlaps    4 atoms,    50 shells and     4 DB shells.   NGrid=      2114
 Symmetry reduced   194 angular points to   194 for atom    2.
 Symmetry reduced   302 angular points to   302 for atom    2.
 Pruned (  99, 590) grid will be used in numerical quadrature.
 IPart=  3 Atom number   2 atomic number  8 has       23718 grid points.
 IPart=  3 Atom   2 batch    4 overlaps    4 atoms,    50 shells and     4 DB shells.   NGrid=      1180
 Symmetry reduced   590 angular points to   590 for atom    2.
 Pruned (  99, 590) grid will be used in numerical quadrature.
 IPart=  4 Atom number   2 atomic number  8 has       23718 grid points.
 IPart=  4 Atom   2 batch    5 overlaps    4 atoms,    50 shells and     4 DB shells.   NGrid=      1180
 Symmetry reduced   590 angular points to   590 for atom    2.
 Pruned (  99, 590) grid will be used in numerical quadrature.
 IPart=  1 Atom number   2 atomic number  8 has       23718 grid points.
 IPart=  1 Atom   2 batch    6 overlaps    4 atoms,    50 shells and     4 DB shells.   NGrid=      1180
 Symmetry reduced   590 angular points to   590 for atom    2.
 Pruned (  99, 590) grid will be used in numerical quadrature.
 Pruned (  99, 590) grid will be used in numerical quadrature.
 IPart=  2 Atom number   2 atomic number  8 has       23718 grid points.
 IPart= 12 Atom number   2 atomic number  8 has       23718 grid points.
 IPart=  2 Atom   2 batch    7 overlaps    4 atoms,    50 shells and     4 DB shells.   NGrid=      1180
 IPart= 12 Atom   2 batch    8 overlaps    4 atoms,    51 shells and     4 DB shells.   NGrid=      1180
 Symmetry reduced   590 angular points to   590 for atom    2.
 Symmetry reduced   590 angular points to   590 for atom    2.
 Pruned (  99, 590) grid will be used in numerical quadrature.
 IPart= 14 Atom number   2 atomic number  8 has       23718 grid points.
 IPart= 14 Atom   2 batch    9 overlaps    4 atoms,    51 shells and     4 DB shells.   NGrid=      1180
 Symmetry reduced   590 angular points to   590 for atom    2.
 Pruned (  99, 590) grid will be used in numerical quadrature.
 IPart=  7 Atom number   2 atomic number  8 has       23718 grid points.
 IPart=  7 Atom   2 batch   10 overlaps    4 atoms,    51 shells and     4 DB shells.   NGrid=      1180
 Symmetry reduced   590 angular points to   590 for atom    2.
 Pruned (  99, 590) grid will be used in numerical quadrature.
 IPart= 10 Atom number   2 atomic number  8 has       23718 grid points.
 IPart= 10 Atom   2 batch   11 overlaps    4 atoms,    51 shells and     4 DB shells.   NGrid=      1180
 Symmetry reduced   590 angular points to   590 for atom    2.
 Pruned (  99, 590) grid will be used in numerical quadrature.
 IPart= 11 Atom number   2 atomic number  8 has       23718 grid points.
 IPart= 11 Atom   2 batch   12 overlaps    4 atoms,    50 shells and     4 DB shells.   NGrid=       590
 Symmetry reduced   590 angular points to   590 for atom    2.
 Pruned (  99, 590) grid will be used in numerical quadrature.
 IPart= 15 Atom number   2 atomic number  8 has       23718 grid points.
 IPart= 15 Atom   2 batch   13 overlaps    4 atoms,    50 shells and     4 DB shells.   NGrid=       604
 Symmetry reduced   302 angular points to   302 for atom    2.
 Pruned (  99, 590) grid will be used in numerical quadrature.
 IPart=  0 Atom number   2 atomic number  8 has       23718 grid points.
 IPart=  0 Atom   2 batch   14 overlaps    4 atoms,    50 shells and     4 DB shells.   NGrid=       604
 Symmetry reduced   302 angular points to   302 for atom    2.
 IPart= 11 Atom   2 batch   15 overlaps    4 atoms,    47 shells and     4 DB shells.   NGrid=       604
 Symmetry reduced   302 angular points to   302 for atom    2.
 IPart= 15 Atom   2 batch   16 overlaps    4 atoms,    45 shells and     4 DB shells.   NGrid=       604
 Pruned (  99, 590) grid will be used in numerical quadrature.
 IPart= 13 Atom number   2 atomic number  8 has       23718 grid points.
 IPart= 13 Atom   2 batch   17 overlaps    4 atoms,    44 shells and     4 DB shells.   NGrid=       604
 Symmetry reduced   302 angular points to   302 for atom    2.
 IPart=  3 Atom   2 batch   18 overlaps    4 atoms,    36 shells and     4 DB shells.   NGrid=       604
 Symmetry reduced   302 angular points to   302 for atom    2.
 Pruned (  99, 590) grid will be used in numerical quadrature.
 IPart=  8 Atom number   2 atomic number  8 has       23718 grid points.
 IPart=  8 Atom   2 batch   19 overlaps    4 atoms,    29 shells and     4 DB shells.   NGrid=       604
 Symmetry reduced   302 angular points to   302 for atom    2.
 IPart=  1 Atom   2 batch   20 overlaps    4 atoms,    18 shells and     3 DB shells.   NGrid=       604
 Symmetry reduced   302 angular points to   302 for atom    2.
 IPart=  4 Atom   2 batch   21 overlaps    4 atoms,    12 shells and     2 DB shells.   NGrid=       604
 Symmetry reduced   302 angular points to   302 for atom    2.
 IPart=  2 Atom   2 batch   22 overlaps    4 atoms,     5 shells and     0 DB shells.   NGrid=       604
 Symmetry reduced   302 angular points to   302 for atom    2.
 IPart= 12 Atom   2 batch   23 overlaps    4 atoms,     1 shells and     0 DB shells.   NGrid=       604
 Symmetry reduced   302 angular points to   302 for atom    2.
 Pruned (  99, 590) grid will be used in numerical quadrature.
 IPart= 14 Atom number   3 atomic number  6 has       23114 grid points.
 IPart= 14 Atom   3 batch    1 overlaps    4 atoms,    51 shells and     4 DB shells.   NGrid=      2408
 Symmetry reduced    86 angular points to    86 for atom    3.
 Pruned (  99, 590) grid will be used in numerical quadrature.
 Pruned (  99, 590) grid will be used in numerical quadrature.
 IPart=  1 Atom number   3 atomic number  6 has       23114 grid points.
 IPart=  4 Atom number   3 atomic number  6 has       23114 grid points.
 IPart=  1 Atom   3 batch    2 overlaps    4 atoms,    51 shells and     4 DB shells.   NGrid=      2522
 IPart=  4 Atom   3 batch    3 overlaps    4 atoms,    51 shells and     4 DB shells.   NGrid=      2114
 Symmetry reduced   194 angular points to   194 for atom    3.
 Symmetry reduced   302 angular points to   302 for atom    3.
 Pruned (  99, 590) grid will be used in numerical quadrature.
 IPart=  7 Atom number   3 atomic number  6 has       23114 grid points.
 IPart=  7 Atom   3 batch    4 overlaps    4 atoms,    51 shells and     4 DB shells.   NGrid=      1180
 Pruned (  99, 590) grid will be used in numerical quadrature.
 Symmetry reduced   590 angular points to   590 for atom    3.
 IPart= 12 Atom number   3 atomic number  6 has       23114 grid points.
 IPart= 12 Atom   3 batch    5 overlaps    4 atoms,    51 shells and     4 DB shells.   NGrid=      1180
 Symmetry reduced   590 angular points to   590 for atom    3.
 Pruned (  99, 590) grid will be used in numerical quadrature.
 IPart= 10 Atom number   3 atomic number  6 has       23114 grid points.
 IPart= 10 Atom   3 batch    6 overlaps    4 atoms,    51 shells and     4 DB shells.   NGrid=      1180
 Symmetry reduced   590 angular points to   590 for atom    3.
 Pruned (  99, 590) grid will be used in numerical quadrature.
 IPart= 13 Atom number   3 atomic number  6 has       23114 grid points.
 IPart= 13 Atom   3 batch    7 overlaps    4 atoms,    51 shells and     4 DB shells.   NGrid=      1180
 Symmetry reduced   590 angular points to   590 for atom    3.
 Pruned (  99, 590) grid will be used in numerical quadrature.
 IPart=  2 Atom number   3 atomic number  6 has       23114 grid points.
 IPart=  2 Atom   3 batch    8 overlaps    4 atoms,    51 shells and     4 DB shells.   NGrid=      1180
 Pruned (  99, 590) grid will be used in numerical quadrature.
 Symmetry reduced   590 angular points to   590 for atom    3.
 IPart= 11 Atom number   3 atomic number  6 has       23114 grid points.
 IPart= 11 Atom   3 batch    9 overlaps    4 atoms,    51 shells and     4 DB shells.   NGrid=      1180
 Pruned (  99, 590) grid will be used in numerical quadrature.
 Symmetry reduced   590 angular points to   590 for atom    3.
 IPart= 15 Atom number   3 atomic number  6 has       23114 grid points.
 IPart= 15 Atom   3 batch   10 overlaps    4 atoms,    51 shells and     4 DB shells.   NGrid=      1180
 Symmetry reduced   590 angular points to   590 for atom    3.
 Pruned (  99, 590) grid will be used in numerical quadrature.
 IPart=  8 Atom number   3 atomic number  6 has       23114 grid points.
 IPart=  8 Atom   3 batch   11 overlaps    4 atoms,    50 shells and     4 DB shells.   NGrid=      1180
 Symmetry reduced   590 angular points to   590 for atom    3.
 Pruned (  99, 590) grid will be used in numerical quadrature.
 IPart=  0 Atom number   3 atomic number  6 has       23114 grid points.
 IPart=  0 Atom   3 batch   12 overlaps    4 atoms,    50 shells and     4 DB shells.   NGrid=       590
 Symmetry reduced   590 angular points to   590 for atom    3.
 Pruned (  99, 590) grid will be used in numerical quadrature.
 IPart=  3 Atom number   3 atomic number  6 has       23114 grid points.
 IPart=  3 Atom   3 batch   13 overlaps    4 atoms,    50 shells and     4 DB shells.   NGrid=       604
 Symmetry reduced   302 angular points to   302 for atom    3.
 Pruned (  99, 590) grid will be used in numerical quadrature.
 IPart=  9 Atom number   3 atomic number  6 has       23114 grid points.
 IPart=  9 Atom   3 batch   14 overlaps    4 atoms,    48 shells and     4 DB shells.   NGrid=       604
 Symmetry reduced   302 angular points to   302 for atom    3.
 Pruned (  99, 590) grid will be used in numerical quadrature.
 IPart=  6 Atom number   3 atomic number  6 has       23114 grid points.
 IPart=  6 Atom   3 batch   15 overlaps    4 atoms,    45 shells and     4 DB shells.   NGrid=       604
 Symmetry reduced   302 angular points to   302 for atom    3.
 IPart=  0 Atom   3 batch   16 overlaps    4 atoms,    34 shells and     4 DB shells.   NGrid=       604
 Symmetry reduced   302 angular points to   302 for atom    3.
 Pruned (  99, 590) grid will be used in numerical quadrature.
 IPart=  5 Atom number   3 atomic number  6 has       23114 grid points.
 IPart=  5 Atom   3 batch   17 overlaps    4 atoms,    29 shells and     4 DB shells.   NGrid=       604
 Symmetry reduced   302 angular points to   302 for atom    3.
 IPart=  3 Atom   3 batch   18 overlaps    4 atoms,    21 shells and     4 DB shells.   NGrid=       604
 IPart=  3 Atom   3 batch   19 overlaps    4 atoms,    16 shells and     4 DB shells.   NGrid=       604
 IPart=  5 Atom   3 batch   20 overlaps    4 atoms,    10 shells and     0 DB shells.   NGrid=       604
 IPart=  6 Atom   3 batch   21 overlaps    4 atoms,     5 shells and     0 DB shells.   NGrid=       604
 IPart=  0 Atom   3 batch   22 overlaps    4 atoms,     1 shells and     0 DB shells.   NGrid=       604
 Pruned (  99, 590) grid will be used in numerical quadrature.
 Pruned (  99, 590) grid will be used in numerical quadrature.
 IPart=  3 Atom number   4 atomic number  1 has       23164 grid points.
 IPart=  9 Atom number   4 atomic number  1 has       23164 grid points.
 IPart=  3 Atom   4 batch    1 overlaps    4 atoms,    49 shells and     4 DB shells.   NGrid=      2838
 IPart=  9 Atom   4 batch    2 overlaps    4 atoms,    49 shells and     4 DB shells.   NGrid=      1552
 Symmetry reduced    86 angular points to    86 for atom    4.
 Pruned (  99, 590) grid will be used in numerical quadrature.
 Symmetry reduced   194 angular points to   194 for atom    4.
 IPart=  8 Atom number   4 atomic number  1 has       23164 grid points.
 Pruned (  99, 590) grid will be used in numerical quadrature.
 Pruned (  99, 590) grid will be used in numerical quadrature.
 IPart=  8 Atom   4 batch    3 overlaps    4 atoms,    49 shells and     4 DB shells.   NGrid=      2416
 IPart= 12 Atom number   4 atomic number  1 has       23164 grid points.
 IPart= 12 Atom   4 batch    5 overlaps    4 atoms,    51 shells and     4 DB shells.   NGrid=      1180
 Symmetry reduced   302 angular points to   302 for atom    4.
 IPart=  7 Atom number   4 atomic number  1 has       23164 grid points.
 Symmetry reduced   590 angular points to   590 for atom    4.
 Pruned (  99, 590) grid will be used in numerical quadrature.
 IPart=  7 Atom   4 batch    4 overlaps    4 atoms,    49 shells and     4 DB shells.   NGrid=      1180
 IPart= 10 Atom number   4 atomic number  1 has       23164 grid points.
 Pruned (  99, 590) grid will be used in numerical quadrature.
 IPart= 10 Atom   4 batch    6 overlaps    4 atoms,    51 shells and     4 DB shells.   NGrid=      1180
 IPart= 15 Atom number   4 atomic number  1 has       23164 grid points.
 Symmetry reduced   590 angular points to   590 for atom    4.
 IPart= 15 Atom   4 batch    7 overlaps    4 atoms,    51 shells and     4 DB shells.   NGrid=      1180
 Symmetry reduced   590 angular points to   590 for atom    4.
 Pruned (  99, 590) grid will be used in numerical quadrature.
 Symmetry reduced   590 angular points to   590 for atom    4.
 IPart=  5 Atom number   4 atomic number  1 has       23164 grid points.
 Pruned (  99, 590) grid will be used in numerical quadrature.
 IPart=  5 Atom   4 batch    8 overlaps    4 atoms,    51 shells and     4 DB shells.   NGrid=      1180
 IPart=  2 Atom number   4 atomic number  1 has       23164 grid points.
 Symmetry reduced   590 angular points to   590 for atom    4.
 IPart=  2 Atom   4 batch    9 overlaps    4 atoms,    51 shells and     4 DB shells.   NGrid=      1180
 Symmetry reduced   590 angular points to   590 for atom    4.
 Pruned (  99, 590) grid will be used in numerical quadrature.
 Pruned (  99, 590) grid will be used in numerical quadrature.
 IPart= 11 Atom number   4 atomic number  1 has       23164 grid points.
 IPart= 13 Atom number   4 atomic number  1 has       23164 grid points.
 IPart= 11 Atom   4 batch   10 overlaps    4 atoms,    51 shells and     4 DB shells.   NGrid=      1180
 IPart= 13 Atom   4 batch   11 overlaps    4 atoms,    51 shells and     4 DB shells.   NGrid=      1180
 Pruned (  99, 590) grid will be used in numerical quadrature.
 Symmetry reduced   590 angular points to   590 for atom    4.
 IPart=  0 Atom number   4 atomic number  1 has       23164 grid points.
 IPart=  0 Atom   4 batch   12 overlaps    4 atoms,    51 shells and     4 DB shells.   NGrid=      1180
 Symmetry reduced   590 angular points to   590 for atom    4.
 Symmetry reduced   590 angular points to   590 for atom    4.
 Pruned (  99, 590) grid will be used in numerical quadrature.
 IPart=  6 Atom number   4 atomic number  1 has       23164 grid points.
 IPart=  6 Atom   4 batch   13 overlaps    4 atoms,    51 shells and     4 DB shells.   NGrid=       604
 Symmetry reduced   302 angular points to   302 for atom    4.
 IPart=  6 Atom   4 batch   14 overlaps    4 atoms,    51 shells and     4 DB shells.   NGrid=       604
 Pruned (  99, 590) grid will be used in numerical quadrature.
 IPart=  4 Atom number   4 atomic number  1 has       23164 grid points.
 IPart=  4 Atom   4 batch   15 overlaps    4 atoms,    45 shells and     4 DB shells.   NGrid=       604
 Symmetry reduced   302 angular points to   302 for atom    4.
 Pruned (  99, 590) grid will be used in numerical quadrature.
 IPart= 14 Atom number   4 atomic number  1 has       23164 grid points.
 IPart= 14 Atom   4 batch   16 overlaps    4 atoms,    44 shells and     4 DB shells.   NGrid=       604
 Symmetry reduced   302 angular points to   302 for atom    4.
 IPart= 12 Atom   4 batch   17 overlaps    4 atoms,    33 shells and     4 DB shells.   NGrid=       604
 Symmetry reduced   302 angular points to   302 for atom    4.
 IPart=  7 Atom   4 batch   18 overlaps    4 atoms,    23 shells and     4 DB shells.   NGrid=       604
 Symmetry reduced   302 angular points to   302 for atom    4.
 IPart= 10 Atom   4 batch   19 overlaps    4 atoms,    18 shells and     4 DB shells.   NGrid=       604
 Symmetry reduced   302 angular points to   302 for atom    4.
 IPart=  2 Atom   4 batch   20 overlaps    4 atoms,     8 shells and     0 DB shells.   NGrid=       604
 Symmetry reduced   302 angular points to   302 for atom    4.
 IPart= 15 Atom   4 batch   21 overlaps    4 atoms,     5 shells and     0 DB shells.   NGrid=       604
 Symmetry reduced   302 angular points to   302 for atom    4.
 IPart=  0 Atom   4 batch   22 overlaps    4 atoms,     0 shells and     0 DB shells.   NGrid=       302
 Pruned (  99, 590) grid will be used in numerical quadrature.
 IPart=  1 Atom number   4 atomic number  1 has       23164 grid points.
 There are a total of       93412 grid points.
 ElSum from          density=       23.9999999536
 ElSum from atomic densities=       22.9999997231

 Hirshfeld populations at iteration   1 (CX, CA, CB, DipXYZ):
               1          2          3          4          5          6
     1  O    0.000027   4.236214   4.236214   0.000000  -0.266691   0.120400
     2  O    0.000027   4.236214   4.236214   0.000000   0.266691   0.120400
     3  C    0.000001   2.994247   2.994247   0.000000   0.000000   0.053115
     4  H    0.000024   0.533325   0.533325   0.000000   0.000000   0.047819
       Tot   0.000078  12.000000  12.000000   0.000000   0.000000   0.341734

 Dip from Atomic Chgs              0.000000   0.000000   0.193825
         Total Dipole              0.000000   0.000000   0.535559

 Hirshfeld charges, spin densities, dipoles, and CM5 charges using IRadAn=      5:
              Q-H        S-H        Dx         Dy         Dz        Q-CM5   
     1  O   -0.472429   0.000000   0.000000  -0.266691   0.120400  -0.520694
     2  O   -0.472429   0.000000   0.000000   0.266691   0.120400  -0.520694
     3  C    0.011507   0.000000   0.000000   0.000000   0.053115   0.036842
     4  H   -0.066649   0.000000   0.000000   0.000000   0.047819   0.004545
       Tot  -1.000000   0.000000   0.000000   0.000000   0.341734  -1.000000
 Hirshfeld charges with hydrogens summed into heavy atoms:
              Q-H       Q-CM5   
     1  O   -0.472429  -0.520694
     2  O   -0.472429  -0.520694
     3  C   -0.055143   0.041387
 
 EQQ=  0.00000000000     EQD=  0.00000000000     EDD= 0.753420727294E-03
 EQQ+QD+DD= 0.753420727294E-03
 
 Entering OneElI...
 OneElI was handed  4294900714 working-precision words.
 Calculate electrostatic properties
    NBasis =   161  MinDer = 0  MaxDer = 0
    NGrid  =     4  NMatD  =   1
 Requested accuracy = 0.1000D-12
 ShPair: Thresh= 1.00D-13 NBox=     0 BxSize= 0.00D+00 RnKept= 4.22D+00
         NSMCal=                 1326 NSMKep=                1319
 PrmmSu-InSpLW:  IPartL=    0 NPrtUS=   16 NPrtUL=    1 DoSpLW=F IThBeg=    0 IThEnd=   15 NThAct=   16.
 PrSmSu:  IncTry=   512 NBBP=           5276 NTPThr=   100 NPartT=   16 Incr=           3 LDynOK=F GPUOK=F.
 PrsmSu:  NPrtUS=  16 ThrOK=T IAlg=2 LenDen=           0 ISkipM=0 DoSpLW=F IThBeg=    0 IThEnd=   15.
 Prism:   IPart=     0 DynPar=F LinDyn=F Incr=           3.
 PRISM was handed   268395435 working-precision words and  1319 shell-pairs
 PRISM was handed   268395435 working-precision words and  1319 shell-pairs
 PRISM was handed   268395435 working-precision words and  1319 shell-pairs
 PRISM was handed   268395435 working-precision words and  1319 shell-pairs
 PRISM was handed   268395435 working-precision words and  1319 shell-pairs
 PRISM was handed   268395435 working-precision words and  1319 shell-pairs
 PRISM was handed   268395435 working-precision words and  1319 shell-pairs
 PRISM was handed   268395435 working-precision words and  1319 shell-pairs
 PRISM was handed   268395435 working-precision words and  1319 shell-pairs
 PRISM was handed   268395435 working-precision words and  1319 shell-pairs
 PRISM was handed   268395435 working-precision words and  1319 shell-pairs
 PRISM was handed   268395435 working-precision words and  1319 shell-pairs
 PRISM was handed   268395435 working-precision words and  1319 shell-pairs
 PRISM was handed   268395435 working-precision words and  1319 shell-pairs
 PRISM was handed   268395435 working-precision words and  1319 shell-pairs
 PRISM was handed   268395435 working-precision words and  1319 shell-pairs
 IPart= 12 NShTot=         296 NBatch=          74 AvBLen=         4.0
 PrsmSu-ThDecC:  IPartSL=   12    0 NPrtUSL=   16    1 IThBeg=    0 IThEnd=   15 CPU=   -1 GPU=   -1 NThAct=   16.
 IPart=  6 NShTot=         312 NBatch=          78 AvBLen=         4.0
 PrsmSu-ThDecC:  IPartSL=    6    0 NPrtUSL=   16    1 IThBeg=    0 IThEnd=   15 CPU=   -1 GPU=   -1 NThAct=   15.
 IPart=  8 NShTot=         304 NBatch=          76 AvBLen=         4.0
 IPart=  9 NShTot=         300 NBatch=          75 AvBLen=         4.0
 IPart= 11 NShTot=         300 NBatch=          75 AvBLen=         4.0
 IPart=  7 NShTot=         312 NBatch=          78 AvBLen=         4.0
 IPart= 10 NShTot=         300 NBatch=          75 AvBLen=         4.0
 PrsmSu-ThDecC:  IPartSL=    8    0 NPrtUSL=   16    1 IThBeg=    0 IThEnd=   15 CPU=   -1 GPU=   -1 NThAct=   14.
 PrsmSu-ThDecC:  IPartSL=   10    0 NPrtUSL=   16    1 IThBeg=    0 IThEnd=   15 CPU=   -1 GPU=   -1 NThAct=   13.
 PrsmSu-ThDecC:  IPartSL=    9    0 NPrtUSL=   16    1 IThBeg=    0 IThEnd=   15 CPU=   -1 GPU=   -1 NThAct=   12.
 IPart= 13 NShTot=         296 NBatch=          74 AvBLen=         4.0
 PrsmSu-ThDecC:  IPartSL=   11    0 NPrtUSL=   16    1 IThBeg=    0 IThEnd=   15 CPU=   -1 GPU=   -1 NThAct=   11.
 PrsmSu-ThDecC:  IPartSL=   13    0 NPrtUSL=   16    1 IThBeg=    0 IThEnd=   15 CPU=   -1 GPU=   -1 NThAct=   10.
 PrsmSu-ThDecC:  IPartSL=    7    0 NPrtUSL=   16    1 IThBeg=    0 IThEnd=   15 CPU=   -1 GPU=   -1 NThAct=    9.
 IPart= 14 NShTot=         288 NBatch=          72 AvBLen=         4.0
 PrsmSu-ThDecC:  IPartSL=   14    0 NPrtUSL=   16    1 IThBeg=    0 IThEnd=   15 CPU=   -1 GPU=   -1 NThAct=    8.
 IPart=  4 NShTot=         332 NBatch=          83 AvBLen=         4.0
 IPart= 15 NShTot=         276 NBatch=          69 AvBLen=         4.0
 IPart=  2 NShTot=         372 NBatch=          93 AvBLen=         4.0
 IPart=  0 NShTot=         464 NBatch=         116 AvBLen=         4.0
 PrsmSu-ThDecC:  IPartSL=    4    0 NPrtUSL=   16    1 IThBeg=    0 IThEnd=   15 CPU=   -1 GPU=   -1 NThAct=    7.
 PrsmSu-ThDecC:  IPartSL=   15    0 NPrtUSL=   16    1 IThBeg=    0 IThEnd=   15 CPU=   -1 GPU=   -1 NThAct=    6.
 PrsmSu-ThDecC:  IPartSL=    2    0 NPrtUSL=   16    1 IThBeg=    0 IThEnd=   15 CPU=   -1 GPU=   -1 NThAct=    5.
 IPart=  3 NShTot=         348 NBatch=          87 AvBLen=         4.0
 PrsmSu-ThDecC:  IPartSL=    0    0 NPrtUSL=   16    1 IThBeg=    0 IThEnd=   15 CPU=   -1 GPU=   -1 NThAct=    4.
 IPart=  5 NShTot=         324 NBatch=          81 AvBLen=         4.0
 IPart=  1 NShTot=         452 NBatch=         113 AvBLen=         4.0
 PrsmSu-ThDecC:  IPartSL=    3    0 NPrtUSL=   16    1 IThBeg=    0 IThEnd=   15 CPU=   -1 GPU=   -1 NThAct=    3.
 PrsmSu-ThDecC:  IPartSL=    1    0 NPrtUSL=   16    1 IThBeg=    0 IThEnd=   15 CPU=   -1 GPU=   -1 NThAct=    2.
 PrsmSu-ThDecC:  IPartSL=    5    0 NPrtUSL=   16    1 IThBeg=    0 IThEnd=   15 CPU=   -1 GPU=   -1 NThAct=    1.
 PrSmSu:  NxtVal=             49.
 --------------------------------------------------------
       Center         ----      EFG at Nuclei      ----
                      3XX-RR        3YY-RR        3ZZ-RR
 --------------------------------------------------------
     1   Atom       -0.465363     -0.408328      0.873690
     2   Atom       -0.465363     -0.408328      0.873690
     3   Atom       -0.396545      0.243756      0.152789
     4   Atom        0.135924      0.129610     -0.265533
 --------------------------------------------------------
                        XY            XZ            YZ
 --------------------------------------------------------
     1   Atom       -0.000000     -0.000000      0.714327
     2   Atom        0.000000     -0.000000     -0.714327
     3   Atom        0.000000     -0.000000     -0.000000
     4   Atom       -0.000000     -0.000000      0.000000
 --------------------------------------------------------


 ---------------------------------------------------------------------------------
              Nuclear Quadrupole Coupling Constant in Principal Axis System
 ---------------------------------------------------------------------------------

       Atom             a.u.   MegaHertz   Gauss  10(-4) cm-1        Axes


 ---------------------------------------------------------------------------------

 No NMR shielding tensors so no spin-rotation constants.
 Leave Link  601 at Tue Sep 30 16:59:01 2025, MaxMem=  4294967296 cpu:               2.7 elap:               0.2
 (Enter /software/sse/easybuild/prefix/software/Gaussian/16.C.01-avx2-nsc1/g16/l602.exe)
 FitSet:  NAtFit=     4 NAtPot=     4 NAtFrz=     0 MDM=     8 TotChg=  -1.00000
 Merz-Kollman atomic radii used.
 Atom Element Radius
    1     8    1.40
    2     8    1.40
    3     6    1.50
    4     1    1.20
 Generate VDW surfaces: Layer= 4 Dens= 6 Start= 1.400 Inc= 0.200

 **********************************************************************

            Electrostatic Properties Using The MP2 Density.

 **********************************************************************

       Atomic Center    1 is at   0.000000  1.115480 -0.205640
       Atomic Center    2 is at  -0.000000 -1.115480 -0.205640
       Atomic Center    3 is at   0.000000 -0.000000  0.310060
       Atomic Center    4 is at   0.000000 -0.000000  1.429880
      ESP Fit Center    5 is at   0.398602  1.805879  1.584909
      ESP Fit Center    6 is at   0.000000  1.912684  1.584909
      ESP Fit Center    7 is at  -0.398602  1.805879  1.584909
      ESP Fit Center    8 is at   1.074263  1.531652  1.380033
      ESP Fit Center    9 is at   0.851382  1.891617  1.380033
      ESP Fit Center   10 is at   0.513517  2.146761  1.380033
      ESP Fit Center   11 is at   0.106299  2.262625  1.380033
      ESP Fit Center   12 is at  -0.315276  2.223560  1.380033
      ESP Fit Center   13 is at  -0.694271  2.034843  1.380033
      ESP Fit Center   14 is at  -0.979500  1.721961  1.380033
      ESP Fit Center   15 is at   1.397563  1.525841  1.105856
      ESP Fit Center   16 is at   1.225339  1.902958  1.105856
      ESP Fit Center   17 is at   0.953846  2.216278  1.105856
      ESP Fit Center   18 is at   0.605078  2.440417  1.105856
      ESP Fit Center   19 is at   0.207291  2.557218  1.105856
      ESP Fit Center   20 is at  -0.207291  2.557218  1.105856
      ESP Fit Center   21 is at  -0.605078  2.440417  1.105856
      ESP Fit Center   22 is at  -0.953846  2.216278  1.105856
      ESP Fit Center   23 is at  -1.225339  1.902958  1.105856
      ESP Fit Center   24 is at  -1.397563  1.525841  1.105856
      ESP Fit Center   25 is at   1.644083  1.537609  0.774360
      ESP Fit Center   26 is at   1.487452  1.933213  0.774360
      ESP Fit Center   27 is at   1.237358  2.277437  0.774360
      ESP Fit Center   28 is at   0.909518  2.548650  0.774360
      ESP Fit Center   29 is at   0.524528  2.729813  0.774360
      ESP Fit Center   30 is at   0.106581  2.809540  0.774360
      ESP Fit Center   31 is at  -0.318063  2.782824  0.774360
      ESP Fit Center   32 is at  -0.722722  2.651342  0.774360
      ESP Fit Center   33 is at  -1.081970  2.423357  0.774360
      ESP Fit Center   34 is at  -1.373233  2.113192  0.774360
      ESP Fit Center   35 is at  -1.578212  1.740338  0.774360
      ESP Fit Center   36 is at  -1.684025  1.328222  0.774360
      ESP Fit Center   37 is at   1.864071  1.115480  0.400033
      ESP Fit Center   38 is at   1.817335  1.530275  0.400033
      ESP Fit Center   39 is at   1.679470  1.924270  0.400033
      ESP Fit Center   40 is at   1.457389  2.277709  0.400033
      ESP Fit Center   41 is at   1.162229  2.572869  0.400033
      ESP Fit Center   42 is at   0.808790  2.794950  0.400033
      ESP Fit Center   43 is at   0.414795  2.932815  0.400033
      ESP Fit Center   44 is at   0.000000  2.979551  0.400033
      ESP Fit Center   45 is at  -0.414795  2.932815  0.400033
      ESP Fit Center   46 is at  -0.808790  2.794950  0.400033
      ESP Fit Center   47 is at  -1.162229  2.572869  0.400033
      ESP Fit Center   48 is at  -1.457389  2.277709  0.400033
      ESP Fit Center   49 is at  -1.679470  1.924270  0.400033
      ESP Fit Center   50 is at  -1.817335  1.530275  0.400033
      ESP Fit Center   51 is at  -1.864071  1.115480  0.400033
      ESP Fit Center   52 is at   1.949263  1.115480 -0.000764
      ESP Fit Center   53 is at   1.903690  1.534514 -0.000764
      ESP Fit Center   54 is at   1.769103  1.933954 -0.000764
      ESP Fit Center   55 is at   1.551795  2.295124 -0.000764
      ESP Fit Center   56 is at   1.261926  2.601134 -0.000764
      ESP Fit Center   57 is at   0.913051  2.837677 -0.000764
      ESP Fit Center   58 is at   0.521483  2.993692 -0.000764
      ESP Fit Center   59 is at   0.105531  3.061884 -0.000764
      ESP Fit Center   60 is at  -0.315356  3.039064 -0.000764
      ESP Fit Center   61 is at  -0.721497  2.926300 -0.000764
      ESP Fit Center   62 is at  -1.093901  2.728863 -0.000764
      ESP Fit Center   63 is at  -1.415156  2.455987 -0.000764
      ESP Fit Center   64 is at  -1.670240  2.120430 -0.000764
      ESP Fit Center   65 is at  -1.847225  1.737883 -0.000764
      ESP Fit Center   66 is at  -1.937836  1.326232 -0.000764
      ESP Fit Center   67 is at  -1.937836  0.904728 -0.000764
      ESP Fit Center   68 is at   1.949263  1.115480 -0.410516
      ESP Fit Center   69 is at   1.903690  1.534514 -0.410516
      ESP Fit Center   70 is at   1.769103  1.933954 -0.410516
      ESP Fit Center   71 is at   1.551795  2.295124 -0.410516
      ESP Fit Center   72 is at   1.261926  2.601134 -0.410516
      ESP Fit Center   73 is at   0.913051  2.837677 -0.410516
      ESP Fit Center   74 is at   0.521483  2.993692 -0.410516
      ESP Fit Center   75 is at   0.105531  3.061884 -0.410516
      ESP Fit Center   76 is at  -0.315356  3.039064 -0.410516
      ESP Fit Center   77 is at  -0.721497  2.926300 -0.410516
      ESP Fit Center   78 is at  -1.093901  2.728863 -0.410516
      ESP Fit Center   79 is at  -1.415156  2.455987 -0.410516
      ESP Fit Center   80 is at  -1.670240  2.120430 -0.410516
      ESP Fit Center   81 is at  -1.847225  1.737883 -0.410516
      ESP Fit Center   82 is at  -1.937836  1.326232 -0.410516
      ESP Fit Center   83 is at  -1.937836  0.904728 -0.410516
      ESP Fit Center   84 is at   1.903690  0.696446 -0.410516
      ESP Fit Center   85 is at   1.864071  1.115480 -0.811313
      ESP Fit Center   86 is at   1.817335  1.530275 -0.811313
      ESP Fit Center   87 is at   1.679470  1.924270 -0.811313
      ESP Fit Center   88 is at   1.457389  2.277709 -0.811313
      ESP Fit Center   89 is at   1.162229  2.572869 -0.811313
      ESP Fit Center   90 is at   0.808790  2.794950 -0.811313
      ESP Fit Center   91 is at   0.414795  2.932815 -0.811313
      ESP Fit Center   92 is at   0.000000  2.979551 -0.811313
      ESP Fit Center   93 is at  -0.414795  2.932815 -0.811313
      ESP Fit Center   94 is at  -0.808790  2.794950 -0.811313
      ESP Fit Center   95 is at  -1.162229  2.572869 -0.811313
      ESP Fit Center   96 is at  -1.457389  2.277709 -0.811313
      ESP Fit Center   97 is at  -1.679470  1.924270 -0.811313
      ESP Fit Center   98 is at  -1.817335  1.530275 -0.811313
      ESP Fit Center   99 is at  -1.864071  1.115480 -0.811313
      ESP Fit Center  100 is at  -1.817335  0.700685 -0.811313
      ESP Fit Center  101 is at   1.817335  0.700685 -0.811313
      ESP Fit Center  102 is at   1.697410  1.115480 -1.185640
      ESP Fit Center  103 is at   1.644083  1.537609 -1.185640
      ESP Fit Center  104 is at   1.487452  1.933213 -1.185640
      ESP Fit Center  105 is at   1.237358  2.277437 -1.185640
      ESP Fit Center  106 is at   0.909518  2.548650 -1.185640
      ESP Fit Center  107 is at   0.524528  2.729813 -1.185640
      ESP Fit Center  108 is at   0.106581  2.809540 -1.185640
      ESP Fit Center  109 is at  -0.318063  2.782824 -1.185640
[...]
 1903 Fit      -0.153001
 1904 Fit      -0.152683
 1905 Fit      -0.152471
 1906 Fit      -0.152365
 1907 Fit      -0.152365
 1908 Fit      -0.152471
 1909 Fit      -0.152683
 1910 Fit      -0.153001
 1911 Fit      -0.153430
 1912 Fit      -0.153979
 1913 Fit      -0.154666
 1914 Fit      -0.155527
 1915 Fit      -0.156625
 1916 Fit      -0.158068
 1917 Fit      -0.160036
 1918 Fit      -0.161169
 1919 Fit      -0.158924
 1920 Fit      -0.157250
 1921 Fit      -0.155955
 1922 Fit      -0.154925
 1923 Fit      -0.154093
 1924 Fit      -0.153424
 1925 Fit      -0.152897
 1926 Fit      -0.152504
 1927 Fit      -0.152242
 1928 Fit      -0.152111
 1929 Fit      -0.152111
 1930 Fit      -0.152242
 1931 Fit      -0.152504
 1932 Fit      -0.152897
 1933 Fit      -0.153424
 1934 Fit      -0.154093
 1935 Fit      -0.154925
 1936 Fit      -0.155955
 1937 Fit      -0.157250
 1938 Fit      -0.158924
 1939 Fit      -0.161169
 1940 Fit      -0.162458
 1941 Fit      -0.159926
 1942 Fit      -0.158015
 1943 Fit      -0.156523
 1944 Fit      -0.155329
 1945 Fit      -0.154363
 1946 Fit      -0.153587
 1947 Fit      -0.152982
 1948 Fit      -0.152540
 1949 Fit      -0.152259
 1950 Fit      -0.152138
 1951 Fit      -0.152179
 1952 Fit      -0.152380
 1953 Fit      -0.152741
 1954 Fit      -0.153264
 1955 Fit      -0.153953
 1956 Fit      -0.154820
 1957 Fit      -0.155894
 1958 Fit      -0.157225
 1959 Fit      -0.158908
 1960 Fit      -0.161097
 1961 Fit      -0.164055
 1962 Fit      -0.165945
 1963 Fit      -0.163868
 1964 Fit      -0.161106
 1965 Fit      -0.158994
 1966 Fit      -0.157332
 1967 Fit      -0.155996
 1968 Fit      -0.154918
 1969 Fit      -0.154057
 1970 Fit      -0.153394
 1971 Fit      -0.152923
 1972 Fit      -0.152640
 1973 Fit      -0.152546
 1974 Fit      -0.152640
 1975 Fit      -0.152923
 1976 Fit      -0.153394
 1977 Fit      -0.154057
 1978 Fit      -0.154918
 1979 Fit      -0.155996
 1980 Fit      -0.157332
 1981 Fit      -0.158994
 1982 Fit      -0.161106
 1983 Fit      -0.163868
 1984 Fit      -0.167606
 1985 Fit      -0.167606
 1986 Fit      -0.165357
 1987 Fit      -0.162313
 1988 Fit      -0.159980
 1989 Fit      -0.158148
 1990 Fit      -0.156688
 1991 Fit      -0.155530
 1992 Fit      -0.154634
 1993 Fit      -0.153982
 1994 Fit      -0.153569
 1995 Fit      -0.153392
 1996 Fit      -0.153451
 1997 Fit      -0.153746
 1998 Fit      -0.154278
 1999 Fit      -0.155050
 2000 Fit      -0.156074
 2001 Fit      -0.157377
 2002 Fit      -0.159011
 2003 Fit      -0.161073
 2004 Fit      -0.163728
 2005 Fit      -0.167245
 2006 Fit      -0.172042
 2007 Fit      -0.175106
 2008 Fit      -0.169450
 2009 Fit      -0.166869
 2010 Fit      -0.163538
 2011 Fit      -0.160995
 2012 Fit      -0.159019
 2013 Fit      -0.157479
 2014 Fit      -0.156302
 2015 Fit      -0.155453
 2016 Fit      -0.154916
 2017 Fit      -0.154686
 2018 Fit      -0.154763
 2019 Fit      -0.155146
 2020 Fit      -0.155838
 2021 Fit      -0.156848
 2022 Fit      -0.158200
 2023 Fit      -0.159946
 2024 Fit      -0.162184
 2025 Fit      -0.165087
 2026 Fit      -0.168933
 2027 Fit      -0.174147
 2028 Fit      -0.177444
 2029 Fit      -0.171336
 2030 Fit      -0.168337
 2031 Fit      -0.164807
 2032 Fit      -0.162123
 2033 Fit      -0.160074
 2034 Fit      -0.158532
 2035 Fit      -0.157430
 2036 Fit      -0.156737
 2037 Fit      -0.156442
 2038 Fit      -0.156540
 2039 Fit      -0.157033
 2040 Fit      -0.157928
 2041 Fit      -0.159244
 2042 Fit      -0.161029
 2043 Fit      -0.163375
 2044 Fit      -0.166448
 2045 Fit      -0.170515
 2046 Fit      -0.175950
 2047 Fit      -0.183190
 2048 Fit      -0.179319
 2049 Fit      -0.173035
 2050 Fit      -0.169683
 2051 Fit      -0.165958
 2052 Fit      -0.163176
 2053 Fit      -0.161141
 2054 Fit      -0.159737
 2055 Fit      -0.158910
 2056 Fit      -0.158636
 2057 Fit      -0.158910
 2058 Fit      -0.159737
 2059 Fit      -0.161141
 2060 Fit      -0.163176
 2061 Fit      -0.165958
 2062 Fit      -0.169683
 2063 Fit      -0.174624
 2064 Fit      -0.181035
 2065 Fit      -0.188874
 2066 Fit      -0.188874
 2067 Fit      -0.181035
 2068 Fit      -0.174624
 2069 Fit      -0.170832
 2070 Fit      -0.166877
 2071 Fit      -0.164080
 2072 Fit      -0.162284
 2073 Fit      -0.161403
 2074 Fit      -0.161403
 2075 Fit      -0.162284
 2076 Fit      -0.164080
 2077 Fit      -0.166877
 2078 Fit      -0.170832
 2079 Fit      -0.176096
 2080 Fit      -0.182509
 2081 Fit      -0.189020
 2082 Fit      -0.189020
 2083 Fit      -0.182509
 2084 Fit      -0.176096
 2085 Fit      -0.171711
 2086 Fit      -0.167653
 2087 Fit      -0.165224
 2088 Fit      -0.164419
 2089 Fit      -0.165224
 2090 Fit      -0.167653
 2091 Fit      -0.171711
 2092 Fit      -0.177097
 2093 Fit      -0.182381
 2094 Fit      -0.184723
 2095 Fit      -0.182381
 2096 Fit      -0.177097
 2097 Fit      -0.172264
 2098 Fit      -0.168587
 2099 Fit      -0.168587
 2100 Fit      -0.172264
 2101 Fit      -0.176971
 2102 Fit      -0.176971
 2103 Fit      -0.172452
 2104 Fit      -0.155416
 2105 Fit      -0.155277
 2106 Fit      -0.155277
 2107 Fit      -0.155416
 2108 Fit      -0.155278
 2109 Fit      -0.155078
 2110 Fit      -0.154997
 2111 Fit      -0.154977
 2112 Fit      -0.154997
 2113 Fit      -0.155078
 2114 Fit      -0.155278
 2115 Fit      -0.155350
 2116 Fit      -0.155015
 2117 Fit      -0.154843
 2118 Fit      -0.154761
 2119 Fit      -0.154726
 2120 Fit      -0.154720
 2121 Fit      -0.154739
 2122 Fit      -0.154794
 2123 Fit      -0.154915
 2124 Fit      -0.155156
 2125 Fit      -0.155613
 2126 Fit      -0.155280
 2127 Fit      -0.154885
 2128 Fit      -0.154646
 2129 Fit      -0.154504
 2130 Fit      -0.154423
 2131 Fit      -0.154383
 2132 Fit      -0.154375
 2133 Fit      -0.154398
 2134 Fit      -0.154457
 2135 Fit      -0.154566
 2136 Fit      -0.154751
 2137 Fit      -0.155058
 2138 Fit      -0.155565
 2139 Fit      -0.156052
 2140 Fit      -0.155318
 2141 Fit      -0.154821
 2142 Fit      -0.154480
 2143 Fit      -0.154244
 2144 Fit      -0.154082
 2145 Fit      -0.153978
 2146 Fit      -0.153922
 2147 Fit      -0.153911
 2148 Fit      -0.153944
 2149 Fit      -0.154023
 2150 Fit      -0.154155
 2151 Fit      -0.154351
 2152 Fit      -0.154635
 2153 Fit      -0.155046
 2154 Fit      -0.155648
 2155 Fit      -0.156883
 2156 Fit      -0.155853
 2157 Fit      -0.155116
 2158 Fit      -0.154575
 2159 Fit      -0.154169
 2160 Fit      -0.153864
 2161 Fit      -0.153640
 2162 Fit      -0.153484
 2163 Fit      -0.153392
 2164 Fit      -0.153362
 2165 Fit      -0.153392
 2166 Fit      -0.153484
 2167 Fit      -0.153640
 2168 Fit      -0.153864
 2169 Fit      -0.154169
 2170 Fit      -0.154575
 2171 Fit      -0.155116
 2172 Fit      -0.155853
 2173 Fit      -0.156883
 2174 Fit      -0.158155
 2175 Fit      -0.156711
 2176 Fit      -0.155658
 2177 Fit      -0.154866
 2178 Fit      -0.154253
 2179 Fit      -0.153775
 2180 Fit      -0.153404
 2181 Fit      -0.153127
 2182 Fit      -0.152938
 2183 Fit      -0.152833
 2184 Fit      -0.152812
 2185 Fit      -0.152875
 2186 Fit      -0.153022
 2187 Fit      -0.153254
 2188 Fit      -0.153577
 2189 Fit      -0.153999
 2190 Fit      -0.154540
 2191 Fit      -0.155236
 2192 Fit      -0.156145
 2193 Fit      -0.157373
 2194 Fit      -0.160036
 2195 Fit      -0.160036
 2196 Fit      -0.158068
 2197 Fit      -0.156625
 2198 Fit      -0.155527
 2199 Fit      -0.154666
 2200 Fit      -0.153979
 2201 Fit      -0.153430
 2202 Fit      -0.153001
 2203 Fit      -0.152683
 2204 Fit      -0.152471
 2205 Fit      -0.152365
 2206 Fit      -0.152365
 2207 Fit      -0.152471
 2208 Fit      -0.152683
 2209 Fit      -0.153001
 2210 Fit      -0.153430
 2211 Fit      -0.153979
 2212 Fit      -0.154666
 2213 Fit      -0.155527
 2214 Fit      -0.156625
 2215 Fit      -0.158068
 2216 Fit      -0.161169
 2217 Fit      -0.161169
 2218 Fit      -0.158924
 2219 Fit      -0.157250
 2220 Fit      -0.155955
 2221 Fit      -0.154925
 2222 Fit      -0.154093
 2223 Fit      -0.153424
 2224 Fit      -0.152897
 2225 Fit      -0.152504
 2226 Fit      -0.152242
 2227 Fit      -0.152111
 2228 Fit      -0.152111
 2229 Fit      -0.152242
 2230 Fit      -0.152504
 2231 Fit      -0.152897
 2232 Fit      -0.153424
 2233 Fit      -0.154093
 2234 Fit      -0.154925
 2235 Fit      -0.155955
 2236 Fit      -0.157250
 2237 Fit      -0.158924
 2238 Fit      -0.162458
 2239 Fit      -0.165945
 2240 Fit      -0.164055
 2241 Fit      -0.161097
 2242 Fit      -0.158908
 2243 Fit      -0.157225
 2244 Fit      -0.155894
 2245 Fit      -0.154820
 2246 Fit      -0.153953
 2247 Fit      -0.153264
 2248 Fit      -0.152741
 2249 Fit      -0.152380
 2250 Fit      -0.152179
 2251 Fit      -0.152138
 2252 Fit      -0.152259
 2253 Fit      -0.152540
 2254 Fit      -0.152982
 2255 Fit      -0.153587
 2256 Fit      -0.154363
 2257 Fit      -0.155329
 2258 Fit      -0.156523
 2259 Fit      -0.158015
 2260 Fit      -0.159926
 2261 Fit      -0.163868
 2262 Fit      -0.167606
 2263 Fit      -0.167606
 2264 Fit      -0.163868
 2265 Fit      -0.161106
 2266 Fit      -0.158994
 2267 Fit      -0.157332
 2268 Fit      -0.155996
 2269 Fit      -0.154918
 2270 Fit      -0.154057
 2271 Fit      -0.153394
 2272 Fit      -0.152923
 2273 Fit      -0.152640
 2274 Fit      -0.152546
 2275 Fit      -0.152640
 2276 Fit      -0.152923
 2277 Fit      -0.153394
 2278 Fit      -0.154057
 2279 Fit      -0.154918
 2280 Fit      -0.155996
 2281 Fit      -0.157332
 2282 Fit      -0.158994
 2283 Fit      -0.161106
 2284 Fit      -0.165357
 2285 Fit      -0.169450
 2286 Fit      -0.175106
 2287 Fit      -0.172042
 2288 Fit      -0.167245
 2289 Fit      -0.163728
 2290 Fit      -0.161073
 2291 Fit      -0.159011
 2292 Fit      -0.157377
 2293 Fit      -0.156074
 2294 Fit      -0.155050
 2295 Fit      -0.154278
 2296 Fit      -0.153746
 2297 Fit      -0.153451
 2298 Fit      -0.153392
 2299 Fit      -0.153569
 2300 Fit      -0.153982
 2301 Fit      -0.154634
 2302 Fit      -0.155530
 2303 Fit      -0.156688
 2304 Fit      -0.158148
 2305 Fit      -0.159980
 2306 Fit      -0.162313
 2307 Fit      -0.166869
 2308 Fit      -0.171336
 2309 Fit      -0.177444
 2310 Fit      -0.174147
 2311 Fit      -0.168933
 2312 Fit      -0.165087
 2313 Fit      -0.162184
 2314 Fit      -0.159946
 2315 Fit      -0.158200
 2316 Fit      -0.156848
 2317 Fit      -0.155838
 2318 Fit      -0.155146
 2319 Fit      -0.154763
 2320 Fit      -0.154686
 2321 Fit      -0.154916
 2322 Fit      -0.155453
 2323 Fit      -0.156302
 2324 Fit      -0.157479
 2325 Fit      -0.159019
 2326 Fit      -0.160995
 2327 Fit      -0.163538
 2328 Fit      -0.168337
 2329 Fit      -0.173035
 2330 Fit      -0.179319
 2331 Fit      -0.183190
 2332 Fit      -0.175950
 2333 Fit      -0.170515
 2334 Fit      -0.166448
 2335 Fit      -0.163375
 2336 Fit      -0.161029
 2337 Fit      -0.159244
 2338 Fit      -0.157928
 2339 Fit      -0.157033
 2340 Fit      -0.156540
 2341 Fit      -0.156442
 2342 Fit      -0.156737
 2343 Fit      -0.157430
 2344 Fit      -0.158532
 2345 Fit      -0.160074
 2346 Fit      -0.162123
 2347 Fit      -0.164807
 2348 Fit      -0.169683
 2349 Fit      -0.174624
 2350 Fit      -0.181035
 2351 Fit      -0.188874
 2352 Fit      -0.188874
 2353 Fit      -0.181035
 2354 Fit      -0.174624
 2355 Fit      -0.169683
 2356 Fit      -0.165958
 2357 Fit      -0.163176
 2358 Fit      -0.161141
 2359 Fit      -0.159737
 2360 Fit      -0.158910
 2361 Fit      -0.158636
 2362 Fit      -0.158910
 2363 Fit      -0.159737
 2364 Fit      -0.161141
 2365 Fit      -0.163176
 2366 Fit      -0.165958
 2367 Fit      -0.170832
 2368 Fit      -0.176096
 2369 Fit      -0.182509
 2370 Fit      -0.189020
 2371 Fit      -0.189020
 2372 Fit      -0.182509
 2373 Fit      -0.176096
 2374 Fit      -0.170832
 2375 Fit      -0.166877
 2376 Fit      -0.164080
 2377 Fit      -0.162284
 2378 Fit      -0.161403
 2379 Fit      -0.161403
 2380 Fit      -0.162284
 2381 Fit      -0.164080
 2382 Fit      -0.166877
 2383 Fit      -0.171711
 2384 Fit      -0.177097
 2385 Fit      -0.182381
 2386 Fit      -0.184723
 2387 Fit      -0.182381
 2388 Fit      -0.177097
 2389 Fit      -0.171711
 2390 Fit      -0.167653
 2391 Fit      -0.165224
 2392 Fit      -0.164419
 2393 Fit      -0.165224
 2394 Fit      -0.167653
 2395 Fit      -0.172264
 2396 Fit      -0.176971
 2397 Fit      -0.176971
 2398 Fit      -0.172264
 2399 Fit      -0.168587
 2400 Fit      -0.168587
 2401 Fit      -0.172452
 2402 Fit      -0.140656
 2403 Fit      -0.141222
 2404 Fit      -0.142886
 2405 Fit      -0.145540
 2406 Fit      -0.148994
 2407 Fit      -0.152952
 2408 Fit      -0.154997
 2409 Fit      -0.150933
 2410 Fit      -0.147183
 2411 Fit      -0.144099
 2412 Fit      -0.141922
 2413 Fit      -0.140798
 2414 Fit      -0.140798
 2415 Fit      -0.141922
 2416 Fit      -0.144099
 2417 Fit      -0.147183
 2418 Fit      -0.150933
 2419 Fit      -0.154997
 2420 Fit      -0.152952
 2421 Fit      -0.148994
 2422 Fit      -0.145540
 2423 Fit      -0.142886
 2424 Fit      -0.141222
 2425 Fit      -0.142244
 2426 Fit      -0.142873
 2427 Fit      -0.144730
 2428 Fit      -0.147731
 2429 Fit      -0.151717
 2430 Fit      -0.151717
 2431 Fit      -0.147731
 2432 Fit      -0.144730
 2433 Fit      -0.142873
 2434 Fit      -0.142244
 2435 Fit      -0.142873
 2436 Fit      -0.144730
 2437 Fit      -0.147731
 2438 Fit      -0.151717
 2439 Fit      -0.151717
 2440 Fit      -0.147731
 2441 Fit      -0.144730
 2442 Fit      -0.142873
 2443 Fit      -0.144296
 2444 Fit      -0.144967
 2445 Fit      -0.146958
 2446 Fit      -0.150203
 2447 Fit      -0.154574
 2448 Fit      -0.152258
 2449 Fit      -0.148430
 2450 Fit      -0.145801
 2451 Fit      -0.144464
 2452 Fit      -0.144464
 2453 Fit      -0.145801
 2454 Fit      -0.148430
 2455 Fit      -0.152258
 2456 Fit      -0.154574
 2457 Fit      -0.150203
 2458 Fit      -0.146958
 2459 Fit      -0.144967
 2460 Fit      -0.146845
 2461 Fit      -0.147569
 2462 Fit      -0.149720
 2463 Fit      -0.153240
 2464 Fit      -0.155481
 2465 Fit      -0.151315
 2466 Fit      -0.148469
 2467 Fit      -0.147027
 2468 Fit      -0.147027
 2469 Fit      -0.148469
 2470 Fit      -0.151315
 2471 Fit      -0.155481
 2472 Fit      -0.153240
 2473 Fit      -0.149720
 2474 Fit      -0.147569
 2475 Fit      -0.149900
 2476 Fit      -0.150720
 2477 Fit      -0.153159
 2478 Fit      -0.157155
 2479 Fit      -0.154969
 2480 Fit      -0.151740
 2481 Fit      -0.150105
 2482 Fit      -0.150105
 2483 Fit      -0.151740
 2484 Fit      -0.154969
 2485 Fit      -0.157155
 2486 Fit      -0.153159
 2487 Fit      -0.150720
 2488 Fit      -0.153443
 2489 Fit      -0.154338
 2490 Fit      -0.157000
 2491 Fit      -0.158974
 2492 Fit      -0.155451
 2493 Fit      -0.153667
 2494 Fit      -0.153667
 2495 Fit      -0.155451
 2496 Fit      -0.158974
 2497 Fit      -0.157000
 2498 Fit      -0.154338
 2499 Fit      -0.157445
 2500 Fit      -0.158387
 2501 Fit      -0.161186
 2502 Fit      -0.159558
 2503 Fit      -0.157681
 2504 Fit      -0.157681
 2505 Fit      -0.159558
 2506 Fit      -0.161186
 2507 Fit      -0.158387
 2508 Fit      -0.161861
 2509 Fit      -0.162907
 2510 Fit      -0.164206
 2511 Fit      -0.162123
 2512 Fit      -0.162123
 2513 Fit      -0.164206
 2514 Fit      -0.162907
 2515 Fit      -0.166629
 2516 Fit      -0.167809
 2517 Fit      -0.167809
 2518 Fit      -0.166629
 2519 Fit      -0.167809
 2520 Fit      -0.167809
 2521 Fit      -0.171661
 2522 Fit      -0.171985
 2523 Fit      -0.171985
 2524 Fit      -0.176830
 2525 Fit      -0.177189
 2526 Fit      -0.177189
 2527 Fit      -0.181950
 2528 Fit      -0.186779
 2529 Fit      -0.121741
 2530 Fit      -0.122089
 2531 Fit      -0.122248
 2532 Fit      -0.122248
 2533 Fit      -0.122089
 2534 Fit      -0.122248
 2535 Fit      -0.122248
 2536 Fit      -0.123142
 2537 Fit      -0.123359
 2538 Fit      -0.123799
 2539 Fit      -0.124021
 2540 Fit      -0.123799
 2541 Fit      -0.123359
 2542 Fit      -0.123142
 2543 Fit      -0.123359
 2544 Fit      -0.123799
 2545 Fit      -0.124021
 2546 Fit      -0.123799
 2547 Fit      -0.123359
 2548 Fit      -0.124923
 2549 Fit      -0.125163
 2550 Fit      -0.125779
 2551 Fit      -0.126492
 2552 Fit      -0.126965
 2553 Fit      -0.126965
 2554 Fit      -0.126492
 2555 Fit      -0.125779
 2556 Fit      -0.125163
 2557 Fit      -0.124923
 2558 Fit      -0.125163
 2559 Fit      -0.125779
 2560 Fit      -0.126492
 2561 Fit      -0.126965
 2562 Fit      -0.126965
 2563 Fit      -0.126492
 2564 Fit      -0.125779
 2565 Fit      -0.125163
 2566 Fit      -0.127474
 2567 Fit      -0.127759
 2568 Fit      -0.128539
 2569 Fit      -0.129608
 2570 Fit      -0.130665
 2571 Fit      -0.131388
 2572 Fit      -0.131546
 2573 Fit      -0.131086
 2574 Fit      -0.130159
 2575 Fit      -0.129054
 2576 Fit      -0.128097
 2577 Fit      -0.127547
 2578 Fit      -0.127547
 2579 Fit      -0.128097
 2580 Fit      -0.129054
 2581 Fit      -0.130159
 2582 Fit      -0.131086
 2583 Fit      -0.131546
 2584 Fit      -0.131388
 2585 Fit      -0.130665
 2586 Fit      -0.129608
 2587 Fit      -0.128539
 2588 Fit      -0.127759
 2589 Fit      -0.130855
 2590 Fit      -0.131207
 2591 Fit      -0.132206
 2592 Fit      -0.133672
 2593 Fit      -0.135325
 2594 Fit      -0.136810
 2595 Fit      -0.137779
 2596 Fit      -0.137986
 2597 Fit      -0.137378
 2598 Fit      -0.136111
 2599 Fit      -0.134496
 2600 Fit      -0.132896
 2601 Fit      -0.131634
 2602 Fit      -0.130944
 2603 Fit      -0.130944
 2604 Fit      -0.131634
 2605 Fit      -0.132896
 2606 Fit      -0.134496
 2607 Fit      -0.136111
 2608 Fit      -0.137378
 2609 Fit      -0.137986
 2610 Fit      -0.137779
 2611 Fit      -0.136810
 2612 Fit      -0.135325
 2613 Fit      -0.133672
 2614 Fit      -0.132206
 2615 Fit      -0.131207
 2616 Fit      -0.135140
 2617 Fit      -0.135568
 2618 Fit      -0.136802
 2619 Fit      -0.138695
 2620 Fit      -0.140996
 2621 Fit      -0.143359
 2622 Fit      -0.145378
 2623 Fit      -0.146659
 2624 Fit      -0.146930
 2625 Fit      -0.146132
 2626 Fit      -0.144437
 2627 Fit      -0.142194
 2628 Fit      -0.139814
 2629 Fit      -0.137679
 2630 Fit      -0.136091
 2631 Fit      -0.135248
 2632 Fit      -0.135248
 2633 Fit      -0.136091
 2634 Fit      -0.137679
 2635 Fit      -0.139814
 2636 Fit      -0.142194
 2637 Fit      -0.144437
 2638 Fit      -0.146132
 2639 Fit      -0.146930
 2640 Fit      -0.146659
 2641 Fit      -0.145378
 2642 Fit      -0.143359
 2643 Fit      -0.140996
 2644 Fit      -0.138695
 2645 Fit      -0.136802
 2646 Fit      -0.135568
 -----------------------------------------------------------------
 Leave Link  602 at Tue Sep 30 16:59:48 2025, MaxMem=  4294967296 cpu:               1.1 elap:               0.1
 (Enter /software/sse/easybuild/prefix/software/Gaussian/16.C.01-avx2-nsc1/g16/l9999.exe)

 Test job not archived.
 1\1\NSC-N74\FOpt\RMP2-FC\Aug-CC-pVTZ\C1H1O2(1-)\X_DAVVA\30-Sep-2025\0\
 \#P MP2/aug-cc-pvtz Opt=tight density=MP2 Pop=(MK,Hirshfeld) iop(6/33=
 2) iop(6/42=6) maxdisk=128GB\\formate\\-1,1\O,0.,1.1412264565,-0.21426
 65472\O,0.,-1.1412264565,-0.2142665472\C,0.,0.,0.3155589764\H,0.,0.,1.
 4416341181\\Version=ES64L-G16RevC.01\State=1-A1\HF=-188.2734143\MP2=-1
 88.9312159\RMSD=6.009e-09\RMSF=6.562e-08\Dipole=0.,0.,0.5776533\Quadru
 pole=2.9556345,-4.5964676,1.6408331,0.,0.,0.\PG=C02V [C2(C1H1),SGV(O2)
 ]\\@


 THE TRULY SUCCESSFUL PERFORMANCE OF RESEARCHES IN
 INORGANIC CHEMISTRY IS POSSIBLE ONLY TO ONE WHO IS NOT
 ONLY A THEORETICAL CHEMIST, BUT ALSO AN ACCOMPLISHED
 ANALYST AND, MOREOVER, NOT MERELY A PRACTICALLY TRAINED,
 MECHANICAL WORKER, BUT A THINKING CREATIVE ARTIST.
   --  CLEMENS WINKLER, BER. 33, 1697(1900)
 Job cpu time:       0 days  0 hours 13 minutes 37.6 seconds.
 Elapsed time:       0 days  0 hours  0 minutes 54.7 seconds.
 File lengths (MBytes):  RWF=     18 Int=      0 D2E=      0 Chk=      8 Scr=      1
 Normal termination of Gaussian 16 at Tue Sep 30 16:59:48 2025.
