 Entering Gaussian System, Link 0=/software/sse/easybuild/prefix/software/Gaussian/16.C.01-avx2-nsc1/g16/g16.orig
 Input=water.wrap
 Output=water.log
 Initial command:
 /software/sse/easybuild/prefix/software/Gaussian/16.C.01-avx2-nsc1/g16/l1.exe "/scratch/local/Gau-1678932.inp" -scrdir="/scratch/local/"
 Entering Link 1 = /software/sse/easybuild/prefix/software/Gaussian/16.C.01-avx2-nsc1/g16/l1.exe PID=   1678933.
  
 Copyright (c) 1988-2019, Gaussian, Inc.  All Rights Reserved.
  
 This is part of the Gaussian(R) 16 program.  It is based on
 the Gaussian(R) 09 system (copyright 2009, Gaussian, Inc.),
 the Gaussian(R) 03 system (copyright 2003, Gaussian, Inc.),
 the Gaussian(R) 98 system (copyright 1998, Gaussian, Inc.),
 the Gaussian(R) 94 system (copyright 1995, Gaussian, Inc.),
 the Gaussian 92(TM) system (copyright 1992, Gaussian, Inc.),
 the Gaussian 90(TM) system (copyright 1990, Gaussian, Inc.),
 the Gaussian 88(TM) system (copyright 1988, Gaussian, Inc.),
 the Gaussian 86(TM) system (copyright 1986, Carnegie Mellon
 University), and the Gaussian 82(TM) system (copyright 1983,
 Carnegie Mellon University). Gaussian is a federally registered
 trademark of Gaussian, Inc.
  
 This software contains proprietary and confidential information,
 including trade secrets, belonging to Gaussian, Inc.
  
 This software is provided under written license and may be
 used, copied, transmitted, or stored only in accord with that
 written license.
  
 The following legend is applicable only to US Government
 contracts under FAR:
  
                    RESTRICTED RIGHTS LEGEND
  
 Use, reproduction and disclosure by the US Government is
 subject to restrictions as set forth in subparagraphs (a)
 and (c) of the Commercial Computer Software - Restricted
 Rights clause in FAR 52.227-19.
  
 Gaussian, Inc.
 340 Quinnipiac St., Bldg. 40, Wallingford CT 06492
  
  
 ---------------------------------------------------------------
 Warning -- This program may not be used in any manner that
 competes with the business of Gaussian, Inc. or will provide
 assistance to any competitor of Gaussian, Inc.  The licensee
 of this program is prohibited from giving any competitor of
 Gaussian, Inc. access to this program.  By using this program,
 the user acknowledges that Gaussian, Inc. is engaged in the
 business of creating and licensing software in the field of
 computational chemistry and represents and warrants to the
 licensee that it is not a competitor of Gaussian, Inc. and that
 it will not use this program in any manner prohibited above.
 ---------------------------------------------------------------
  

 Cite this work as:
 Gaussian 16, Revision C.01,
 M. J. Frisch, G. W. Trucks, H. B. Schlegel, G. E. Scuseria, 
 M. A. Robb, J. R. Cheeseman, G. Scalmani, V. Barone, 
 G. A. Petersson, H. Nakatsuji, X. Li, M. Caricato, A. V. Marenich, 
 J. Bloino, B. G. Janesko, R. Gomperts, B. Mennucci, H. P. Hratchian, 
 J. V. Ortiz, A. F. Izmaylov, J. L. Sonnenberg, D. Williams-Young, 
 F. Ding, F. Lipparini, F. Egidi, J. Goings, B. Peng, A. Petrone, 
 T. Henderson, D. Ranasinghe, V. G. Zakrzewski, J. Gao, N. Rega, 
 G. Zheng, W. Liang, M. Hada, M. Ehara, K. Toyota, R. Fukuda, 
 J. Hasegawa, M. Ishida, T. Nakajima, Y. Honda, O. Kitao, H. Nakai, 
 T. Vreven, K. Throssell, J. A. Montgomery, Jr., J. E. Peralta, 
 F. Ogliaro, M. J. Bearpark, J. J. Heyd, E. N. Brothers, K. N. Kudin, 
 V. N. Staroverov, T. A. Keith, R. Kobayashi, J. Normand, 
 K. Raghavachari, A. P. Rendell, J. C. Burant, S. S. Iyengar, 
 J. Tomasi, M. Cossi, J. M. Millam, M. Klene, C. Adamo, R. Cammi, 
 J. W. Ochterski, R. L. Martin, K. Morokuma, O. Farkas, 
 J. B. Foresman, and D. J. Fox, Gaussian, Inc., Wallingford CT, 2019.
 
 ******************************************
 Gaussian 16:  ES64L-G16RevC.01  3-Jul-2019
                30-Sep-2025 
 ******************************************
 %mem=12000MB
 %nprocshared=16
 Will use up to   16 processors via shared memory.
 %mem=32Gb
 %chk=water.chk
 ----------------------------------------------------------------------
 #P HF/aug-cc-pvtz Opt=tight Pop=(MK,Hirshfeld) iop(6/33=2) iop(6/42=6)
  maxdisk=128GB
 ----------------------------------------------------------------------
 1/7=10,18=20,19=15,38=1/1,3;
 2/9=110,12=2,17=6,18=5,40=1/2;
 3/5=16,6=1,7=10,11=9,25=1,30=1,71=1/1,2,3;
 4//1;
 5/5=2,38=5/2;
 6/7=2,8=2,9=2,10=2,15=8,20=1,28=1,33=2,42=6,79=1/1,2;
 7//1,2,3,16;
 1/7=10,18=20,19=15/3(2);
 2/9=110/2;
 99//99;
 2/9=110/2;
 3/5=16,6=1,7=10,11=9,25=1,30=1,71=1/1,2,3;
 4/5=5,16=3,69=1/1;
 5/5=2,38=5/2;
 7//1,2,3,16;
 1/7=10,18=20,19=15/3(-5);
 2/9=110/2;
 6/7=2,8=2,9=2,10=2,15=8,19=2,20=1,28=1,33=2,42=6,79=1/1,2;
 99/9=1/99;
 Leave Link    1 at Tue Sep 30 16:58:49 2025, MaxMem=  4294967296 cpu:               0.9 elap:               0.1
 (Enter /software/sse/easybuild/prefix/software/Gaussian/16.C.01-avx2-nsc1/g16/l101.exe)
 -----
 water
 -----
 Symbolic Z-matrix:
 Charge =  0 Multiplicity = 1
 O                     0.        0.        0.11285 
 H                     0.        0.75309  -0.4514 
 H                     0.       -0.75309  -0.4514 
 
 ITRead=  0  0  0
 MicOpt= -1 -1 -1
 NAtoms=      3 NQM=        3 NQMF=       0 NMMI=      0 NMMIF=      0
                NMic=       0 NMicF=      0.
                    Isotopes and Nuclear Properties:
 (Nuclear quadrupole moments (NQMom) in fm**2, nuclear magnetic moments (NMagM)
  in nuclear magnetons)

  Atom         1           2           3
 IAtWgt=          16           1           1
 AtmWgt=  15.9949146   1.0078250   1.0078250
 NucSpn=           0           1           1
 AtZEff=  -0.0000000  -0.0000000  -0.0000000
 NQMom=    0.0000000   0.0000000   0.0000000
 NMagM=    0.0000000   2.7928460   2.7928460
 AtZNuc=   8.0000000   1.0000000   1.0000000
 Leave Link  101 at Tue Sep 30 16:58:50 2025, MaxMem=  4294967296 cpu:               5.1 elap:               0.3
 (Enter /software/sse/easybuild/prefix/software/Gaussian/16.C.01-avx2-nsc1/g16/l103.exe)

 GradGradGradGradGradGradGradGradGradGradGradGradGradGradGradGradGradGrad
 Berny optimization.
 Initialization pass.
                           ----------------------------
                           !    Initial Parameters    !
                           ! (Angstroms and Degrees)  !
 --------------------------                            --------------------------
 ! Name  Definition              Value          Derivative Info.                !
 --------------------------------------------------------------------------------
 ! R1    R(1,2)                  0.941          estimate D2E/DX2                !
 ! R2    R(1,3)                  0.941          estimate D2E/DX2                !
 ! A1    A(2,1,3)              106.3155         estimate D2E/DX2                !
 --------------------------------------------------------------------------------
 Trust Radius=3.00D-01 FncErr=1.00D-07 GrdErr=1.00D-07 EigMax=2.50D+02 EigMin=1.00D-04
 Number of steps in this run=     20 maximum allowed number of steps=    100.
 GradGradGradGradGradGradGradGradGradGradGradGradGradGradGradGradGradGrad

 Leave Link  103 at Tue Sep 30 16:58:50 2025, MaxMem=  4294967296 cpu:               0.2 elap:               0.0
 (Enter /software/sse/easybuild/prefix/software/Gaussian/16.C.01-avx2-nsc1/g16/l202.exe)
                          Input orientation:                          
 ---------------------------------------------------------------------
 Center     Atomic      Atomic             Coordinates (Angstroms)
 Number     Number       Type             X           Y           Z
 ---------------------------------------------------------------------
      1          8           0        0.000000    0.000000    0.112850
      2          1           0        0.000000    0.753090   -0.451400
      3          1           0        0.000000   -0.753090   -0.451400
 ---------------------------------------------------------------------
                    Distance matrix (angstroms):
                    1          2          3
     1  O    0.000000
     2  H    0.941022   0.000000
     3  H    0.941022   1.506180   0.000000
 Stoichiometry    H2O
 Framework group  C2V[C2(O),SGV(H2)]
 Deg. of freedom     2
 Full point group                 C2V     NOp   4
 Largest Abelian subgroup         C2V     NOp   4
 Largest concise Abelian subgroup C2      NOp   2
                         Standard orientation:                         
 ---------------------------------------------------------------------
 Center     Atomic      Atomic             Coordinates (Angstroms)
 Number     Number       Type             X           Y           Z
 ---------------------------------------------------------------------
      1          8           0        0.000000   -0.000000    0.112850
      2          1           0        0.000000    0.753090   -0.451400
      3          1           0       -0.000000   -0.753090   -0.451400
 ---------------------------------------------------------------------
 Rotational constants (GHZ):         886.7563942         442.0875649         295.0112933
 Leave Link  202 at Tue Sep 30 16:58:50 2025, MaxMem=  4294967296 cpu:               0.1 elap:               0.0
 (Enter /software/sse/easybuild/prefix/software/Gaussian/16.C.01-avx2-nsc1/g16/l301.exe)
 Standard basis: Aug-CC-pVTZ (5D, 7F)
 Ernie: Thresh=  0.10000D-02 Tol=  0.10000D-05 Strict=F.
 Ernie:  3 primitive shells out of 52 were deleted.
 There are    42 symmetry adapted cartesian basis functions of A1  symmetry.
 There are    12 symmetry adapted cartesian basis functions of A2  symmetry.
 There are    20 symmetry adapted cartesian basis functions of B1  symmetry.
 There are    31 symmetry adapted cartesian basis functions of B2  symmetry.
 There are    35 symmetry adapted basis functions of A1  symmetry.
 There are    12 symmetry adapted basis functions of A2  symmetry.
 There are    18 symmetry adapted basis functions of B1  symmetry.
 There are    27 symmetry adapted basis functions of B2  symmetry.
    92 basis functions,   126 primitive gaussians,   105 cartesian basis functions
     5 alpha electrons        5 beta electrons
       nuclear repulsion energy         9.3488255490 Hartrees.
 IExCor=    0 DFT=F Ex=HF Corr=None ExCW=0 ScaHFX=  1.000000
 ScaDFX=  1.000000  1.000000  1.000000  1.000000 ScalE2=  1.000000  1.000000
 IRadAn=      5 IRanWt=     -1 IRanGd=            0 ICorTp=0 IEmpDi=  4
 NAtoms=    3 NActive=    3 NUniq=    2 SFac= 2.25D+00 NAtFMM=   60 NAOKFM=F Big=F
 Integral buffers will be    131072 words long.
 Raffenetti 1 integral format.
 Two-electron integral symmetry is turned on.
 Leave Link  301 at Tue Sep 30 16:58:51 2025, MaxMem=  4294967296 cpu:               0.8 elap:               0.1
 (Enter /software/sse/easybuild/prefix/software/Gaussian/16.C.01-avx2-nsc1/g16/l302.exe)
 NPDir=0 NMtPBC=     1 NCelOv=     1 NCel=       1 NClECP=     1 NCelD=      1
         NCelK=      1 NCelE2=     1 NClLst=     1 CellRange=     0.0.
 One-electron integrals computed using PRISM.
 One-electron integral symmetry used in STVInt
 NBasis=    92 RedAO= T EigKep=  3.68D-04  NBF=    35    12    18    27
 NBsUse=    92 1.00D-06 EigRej= -1.00D+00 NBFU=    35    12    18    27
 Leave Link  302 at Tue Sep 30 16:58:51 2025, MaxMem=  4294967296 cpu:               1.8 elap:               0.1
 (Enter /software/sse/easybuild/prefix/software/Gaussian/16.C.01-avx2-nsc1/g16/l303.exe)
 DipDrv:  MaxL=1.
 Leave Link  303 at Tue Sep 30 16:58:52 2025, MaxMem=  4294967296 cpu:               0.3 elap:               0.0
 (Enter /software/sse/easybuild/prefix/software/Gaussian/16.C.01-avx2-nsc1/g16/l401.exe)
 ExpMin= 2.53D-02 ExpMax= 1.53D+04 ExpMxC= 5.22D+02 IAcc=3 IRadAn=         5 AccDes= 0.00D+00
 Harris functional with IExCor=  205 and IRadAn=       5 diagonalized for initial guess.
 HarFok:  IExCor=  205 AccDes= 0.00D+00 IRadAn=         5 IDoV= 1 UseB2=F ITyADJ=14
 ICtDFT=  3500011 ScaDFX=  1.000000  1.000000  1.000000  1.000000
 FoFCou: FMM=F IPFlag=           0 FMFlag=      100000 FMFlg1=           0
         NFxFlg=           0 DoJE=T BraDBF=F KetDBF=T FulRan=T
         wScrn=  0.000000 ICntrl=       500 IOpCl=  0 I1Cent=   200000004 NGrid=           0
         NMat0=    1 NMatS0=      1 NMatT0=    0 NMatD0=    1 NMtDS0=    0 NMtDT0=    0
 Petite list used in FoFCou.
 Harris En= -76.1544991004375    
 JPrj=0 DoOrth=F DoCkMO=F.
 Initial guess orbital symmetries:
       Occupied  (A1) (A1) (B2) (A1) (B1)
       Virtual   (A1) (B2) (A1) (B1) (A1) (B2) (B2) (A1) (A2) (A1)
                 (B1) (B2) (A1) (B2) (B2) (A1) (A1) (B1) (A2) (A1)
                 (A1) (B1) (B1) (B2) (A2) (B2) (A1) (B2) (A1) (B1)
                 (B2) (A1) (A2) (B2) (A2) (A1) (B1) (A1) (B2) (B2)
                 (A1) (B1) (A2) (A1) (A1) (B1) (B2) (A1) (B1) (B2)
                 (A1) (B2) (A2) (B2) (A1) (B1) (A2) (A1) (B2) (B1)
                 (A2) (A1) (B1) (B2) (A1) (B2) (B2) (A2) (B2) (A1)
                 (B1) (A1) (A1) (B2) (B1) (A1) (B1) (A1) (B1) (A2)
                 (A2) (B2) (A1) (A1) (B2) (B2) (A1)
 The electronic state of the initial guess is 1-A1.
 Leave Link  401 at Tue Sep 30 16:58:53 2025, MaxMem=  4294967296 cpu:               2.4 elap:               0.2
 (Enter /software/sse/easybuild/prefix/software/Gaussian/16.C.01-avx2-nsc1/g16/l502.exe)
 Keep R1 ints in memory in symmetry-blocked form, NReq=16974842.
 FoFCou: FMM=F IPFlag=           0 FMFlag=           0 FMFlg1=           0
         NFxFlg=           0 DoJE=F BraDBF=F KetDBF=F FulRan=T
         wScrn=  0.000000 ICntrl=       600 IOpCl=  0 I1Cent=           0 NGrid=           0
         NMat0=    1 NMatS0=   4278 NMatT0=    0 NMatD0=    1 NMtDS0=    0 NMtDT0=    0
 Petite list used in FoFCou.
 Closed shell SCF:
 Using DIIS extrapolation, IDIIS=  1040.
 NGot=  4294967296 LenX=  4292599157 LenY=  4292587691
 Requested convergence on RMS density matrix=1.00D-08 within 128 cycles.
 Requested convergence on MAX density matrix=1.00D-06.
 Requested convergence on             energy=1.00D-06.
 No special actions if energy rises.

 Cycle   1  Pass 1  IDiag  1:
 E= -75.9695316269020    
 DIIS: error= 6.48D-02 at cycle   1 NSaved=   1.
 NSaved= 1 IEnMin= 1 EnMin= -75.9695316269020     IErMin= 1 ErrMin= 6.48D-02
 ErrMax= 6.48D-02  0.00D+00 EMaxC= 1.00D-01 BMatC= 2.09D-01 BMatP= 2.09D-01
 IDIUse=3 WtCom= 3.52D-01 WtEn= 6.48D-01
 Coeff-Com:  0.100D+01
 Coeff-En:   0.100D+01
 Coeff:      0.100D+01
 Gap=     0.450 Goal=   None    Shift=    0.000
 GapD=    0.450 DampG=2.000 DampE=0.500 DampFc=1.0000 IDamp=-1.
 RMSDP=2.18D-03 MaxDP=4.98D-02              OVMax= 1.23D-01

 Cycle   2  Pass 1  IDiag  1:
 E= -76.0243727158833     Delta-E=       -0.054841088981 Rises=F Damp=F
 DIIS: error= 4.14D-02 at cycle   2 NSaved=   2.
 NSaved= 2 IEnMin= 2 EnMin= -76.0243727158833     IErMin= 2 ErrMin= 4.14D-02
 ErrMax= 4.14D-02  0.00D+00 EMaxC= 1.00D-01 BMatC= 6.00D-02 BMatP= 2.09D-01
 IDIUse=3 WtCom= 5.86D-01 WtEn= 4.14D-01
 Coeff-Com:  0.322D+00 0.678D+00
 Coeff-En:   0.190D+00 0.810D+00
 Coeff:      0.267D+00 0.733D+00
 Gap=     0.570 Goal=   None    Shift=    0.000
 RMSDP=1.31D-03 MaxDP=3.41D-02 DE=-5.48D-02 OVMax= 6.54D-02

 Cycle   3  Pass 1  IDiag  1:
 E= -76.0593017765182     Delta-E=       -0.034929060635 Rises=F Damp=F
 DIIS: error= 9.07D-03 at cycle   3 NSaved=   3.
 NSaved= 3 IEnMin= 3 EnMin= -76.0593017765182     IErMin= 3 ErrMin= 9.07D-03
 ErrMax= 9.07D-03  0.00D+00 EMaxC= 1.00D-01 BMatC= 3.07D-03 BMatP= 6.00D-02
 IDIUse=3 WtCom= 9.09D-01 WtEn= 9.07D-02
 Coeff-Com: -0.303D-01 0.154D+00 0.877D+00
 Coeff-En:   0.000D+00 0.000D+00 0.100D+01
 Coeff:     -0.276D-01 0.140D+00 0.888D+00
 Gap=     0.539 Goal=   None    Shift=    0.000
 RMSDP=2.26D-04 MaxDP=4.42D-03 DE=-3.49D-02 OVMax= 1.27D-02

 Cycle   4  Pass 1  IDiag  1:
 E= -76.0611797652295     Delta-E=       -0.001877988711 Rises=F Damp=F
 DIIS: error= 6.91D-04 at cycle   4 NSaved=   4.
 NSaved= 4 IEnMin= 4 EnMin= -76.0611797652295     IErMin= 4 ErrMin= 6.91D-04
 ErrMax= 6.91D-04  0.00D+00 EMaxC= 1.00D-01 BMatC= 1.43D-05 BMatP= 3.07D-03
 IDIUse=3 WtCom= 9.93D-01 WtEn= 6.91D-03
 Coeff-Com:  0.644D-02-0.549D-01-0.227D+00 0.128D+01
 Coeff-En:   0.000D+00 0.000D+00 0.000D+00 0.100D+01
 Coeff:      0.639D-02-0.545D-01-0.225D+00 0.127D+01
 Gap=     0.540 Goal=   None    Shift=    0.000
 RMSDP=3.49D-05 MaxDP=7.14D-04 DE=-1.88D-03 OVMax= 2.16D-03

 Cycle   5  Pass 1  IDiag  1:
 E= -76.0612015678434     Delta-E=       -0.000021802614 Rises=F Damp=F
 DIIS: error= 1.79D-04 at cycle   5 NSaved=   5.
 NSaved= 5 IEnMin= 5 EnMin= -76.0612015678434     IErMin= 5 ErrMin= 1.79D-04
 ErrMax= 1.79D-04  0.00D+00 EMaxC= 1.00D-01 BMatC= 5.96D-07 BMatP= 1.43D-05
 IDIUse=3 WtCom= 9.98D-01 WtEn= 1.79D-03
 Coeff-Com:  0.190D-03 0.305D-02 0.818D-02-0.294D+00 0.128D+01
 Coeff-En:   0.000D+00 0.000D+00 0.000D+00 0.000D+00 0.100D+01
 Coeff:      0.189D-03 0.304D-02 0.816D-02-0.293D+00 0.128D+01
 Gap=     0.541 Goal=   None    Shift=    0.000
 RMSDP=1.04D-05 MaxDP=2.05D-04 DE=-2.18D-05 OVMax= 6.77D-04

 Cycle   6  Pass 1  IDiag  1:
 E= -76.0612030159226     Delta-E=       -0.000001448079 Rises=F Damp=F
 DIIS: error= 2.46D-05 at cycle   6 NSaved=   6.
 NSaved= 6 IEnMin= 6 EnMin= -76.0612030159226     IErMin= 6 ErrMin= 2.46D-05
 ErrMax= 2.46D-05  0.00D+00 EMaxC= 1.00D-01 BMatC= 1.60D-08 BMatP= 5.96D-07
 IDIUse=1 WtCom= 1.00D+00 WtEn= 0.00D+00
 Coeff-Com: -0.223D-03 0.851D-03 0.370D-02 0.347D-01-0.349D+00 0.131D+01
 Coeff:     -0.223D-03 0.851D-03 0.370D-02 0.347D-01-0.349D+00 0.131D+01
 Gap=     0.541 Goal=   None    Shift=    0.000
 RMSDP=2.00D-06 MaxDP=4.67D-05 DE=-1.45D-06 OVMax= 1.34D-04

 Cycle   7  Pass 1  IDiag  1:
 E= -76.0612030628329     Delta-E=       -0.000000046910 Rises=F Damp=F
 DIIS: error= 4.00D-06 at cycle   7 NSaved=   7.
 NSaved= 7 IEnMin= 7 EnMin= -76.0612030628329     IErMin= 7 ErrMin= 4.00D-06
 ErrMax= 4.00D-06  0.00D+00 EMaxC= 1.00D-01 BMatC= 6.78D-10 BMatP= 1.60D-08
 IDIUse=1 WtCom= 1.00D+00 WtEn= 0.00D+00
 Coeff-Com:  0.248D-04-0.304D-03-0.114D-02 0.119D-01-0.143D-01-0.168D+00
 Coeff-Com:  0.117D+01
 Coeff:      0.248D-04-0.304D-03-0.114D-02 0.119D-01-0.143D-01-0.168D+00
 Coeff:      0.117D+01
 Gap=     0.541 Goal=   None    Shift=    0.000
 RMSDP=2.83D-07 MaxDP=6.37D-06 DE=-4.69D-08 OVMax= 2.26D-05

 Cycle   8  Pass 1  IDiag  1:
 E= -76.0612030643363     Delta-E=       -0.000000001503 Rises=F Damp=F
 DIIS: error= 9.13D-07 at cycle   8 NSaved=   8.
 NSaved= 8 IEnMin= 8 EnMin= -76.0612030643363     IErMin= 8 ErrMin= 9.13D-07
 ErrMax= 9.13D-07  0.00D+00 EMaxC= 1.00D-01 BMatC= 3.84D-11 BMatP= 6.78D-10
 IDIUse=1 WtCom= 1.00D+00 WtEn= 0.00D+00
 Coeff-Com:  0.729D-05 0.188D-04 0.693D-04-0.487D-02 0.225D-01-0.331D-01
 Coeff-Com: -0.300D+00 0.131D+01
 Coeff:      0.729D-05 0.188D-04 0.693D-04-0.487D-02 0.225D-01-0.331D-01
 Coeff:     -0.300D+00 0.131D+01
 Gap=     0.541 Goal=   None    Shift=    0.000
 RMSDP=9.22D-08 MaxDP=1.99D-06 DE=-1.50D-09 OVMax= 6.06D-06

 Cycle   9  Pass 1  IDiag  1:
 E= -76.0612030644346     Delta-E=       -0.000000000098 Rises=F Damp=F
 DIIS: error= 1.33D-07 at cycle   9 NSaved=   9.
 NSaved= 9 IEnMin= 9 EnMin= -76.0612030644346     IErMin= 9 ErrMin= 1.33D-07
 ErrMax= 1.33D-07  0.00D+00 EMaxC= 1.00D-01 BMatC= 5.29D-13 BMatP= 3.84D-11
 IDIUse=1 WtCom= 1.00D+00 WtEn= 0.00D+00
 Coeff-Com: -0.179D-05 0.998D-06 0.878D-06 0.781D-03-0.395D-02 0.848D-02
 Coeff-Com:  0.478D-01-0.303D+00 0.125D+01
 Coeff:     -0.179D-05 0.998D-06 0.878D-06 0.781D-03-0.395D-02 0.848D-02
 Coeff:      0.478D-01-0.303D+00 0.125D+01
 Gap=     0.541 Goal=   None    Shift=    0.000
 RMSDP=1.45D-08 MaxDP=3.24D-07 DE=-9.82D-11 OVMax= 6.52D-07

 Cycle  10  Pass 1  IDiag  1:
 E= -76.0612030644360     Delta-E=       -0.000000000001 Rises=F Damp=F
 DIIS: error= 2.86D-08 at cycle  10 NSaved=  10.
 NSaved=10 IEnMin=10 EnMin= -76.0612030644360     IErMin=10 ErrMin= 2.86D-08
 ErrMax= 2.86D-08  0.00D+00 EMaxC= 1.00D-01 BMatC= 1.94D-14 BMatP= 5.29D-13
 IDIUse=1 WtCom= 1.00D+00 WtEn= 0.00D+00
 Coeff-Com:  0.501D-06-0.859D-06-0.185D-05-0.181D-03 0.963D-03-0.254D-02
 Coeff-Com: -0.874D-02 0.751D-01-0.458D+00 0.139D+01
 Coeff:      0.501D-06-0.859D-06-0.185D-05-0.181D-03 0.963D-03-0.254D-02
 Coeff:     -0.874D-02 0.751D-01-0.458D+00 0.139D+01
 Gap=     0.541 Goal=   None    Shift=    0.000
 RMSDP=3.18D-09 MaxDP=6.56D-08 DE=-1.41D-12 OVMax= 1.38D-07

 SCF Done:  E(RHF) =  -76.0612030644     A.U. after   10 cycles
            NFock= 10  Conv=0.32D-08     -V/T= 2.0005
 KE= 7.602206151917D+01 PE=-1.993410796580D+02 EE= 3.790898952533D+01
 Leave Link  502 at Tue Sep 30 16:58:54 2025, MaxMem=  4294967296 cpu:               4.9 elap:               0.3
 (Enter /software/sse/easybuild/prefix/software/Gaussian/16.C.01-avx2-nsc1/g16/l601.exe)
 Copying SCF densities to generalized density rwf, IOpCl= 0 IROHF=0.
 SCF density gives NOpUse=  4 NOpAll=  4.

 **********************************************************************

            Population analysis using the SCF Density.

 **********************************************************************

 Orbital symmetries:
 BldTbl:  Degeneracy threshold= 1.00D-02
       Occupied  (A1) (A1) (B2) (A1) (B1)
       Virtual   (A1) (B2) (A1) (B1) (A1) (B2) (B2) (A1) (A2) (B1)
                 (A1) (B2) (A1) (B2) (B2) (A1) (A1) (A2) (B1) (A1)
                 (B1) (A1) (B2) (B1) (A2) (B2) (A1) (A1) (B2) (B1)
                 (B2) (A2) (A1) (B2) (A2) (A1) (B1) (A1) (B2) (B2)
                 (A1) (B1) (A1) (A2) (B1) (A1) (B2) (A1) (B2) (B1)
                 (A1) (B2) (A2) (B2) (A1) (A2) (B1) (A1) (B2) (B1)
                 (A2) (A1) (B1) (B2) (A1) (B2) (B2) (A2) (B2) (A1)
                 (B1) (A1) (A1) (B2) (B1) (A1) (B1) (B1) (A1) (A2)
                 (A2) (B2) (A1) (A1) (B2) (B2) (A1)
 The electronic state is 1-A1.
 Alpha  occ. eigenvalues --  -20.56350  -1.36084  -0.73044  -0.58450  -0.51124
 Alpha virt. eigenvalues --    0.02975   0.04764   0.13624   0.15737   0.17532
 Alpha virt. eigenvalues --    0.18247   0.22963   0.24558   0.26477   0.30334
 Alpha virt. eigenvalues --    0.31234   0.36613   0.44166   0.46961   0.60199
 Alpha virt. eigenvalues --    0.65833   0.71033   0.72076   0.73096   0.83507
 Alpha virt. eigenvalues --    0.84682   0.88773   0.91650   0.91892   0.92376
 Alpha virt. eigenvalues --    0.93093   0.96795   1.03017   1.05120   1.08610
 Alpha virt. eigenvalues --    1.11515   1.17901   1.18572   1.25360   1.51780
 Alpha virt. eigenvalues --    1.54616   1.60083   1.79245   1.81820   2.01739
 Alpha virt. eigenvalues --    2.13273   2.26336   2.32013   2.32176   2.42133
 Alpha virt. eigenvalues --    2.42203   2.43926   2.47713   2.66976   2.69465
 Alpha virt. eigenvalues --    2.78851   2.84073   2.89414   3.67886   3.78284
 Alpha virt. eigenvalues --    4.02635   4.10815   4.20301   4.26663   4.32241
 Alpha virt. eigenvalues --    4.38769   4.38895   4.42311   4.51827   4.73971
 Alpha virt. eigenvalues --    4.87930   5.16868   5.20858   5.31696   5.40493
 Alpha virt. eigenvalues --    5.57257   5.72099   6.19339   6.51834   6.71538
 Alpha virt. eigenvalues --    6.91354   7.14590   7.28099   7.31201   7.32922
 Alpha virt. eigenvalues --    7.38749   7.39043   7.60354   7.96562   7.97706
 Alpha virt. eigenvalues --    8.88429  16.36830
          Condensed to atoms (all electrons):
               1          2          3
     1  O    7.853003   0.278677   0.278677
     2  H    0.278677   0.506200   0.009945
     3  H    0.278677   0.009945   0.506200
 Mulliken charges:
               1
     1  O   -0.410356
     2  H    0.205178
     3  H    0.205178
 Sum of Mulliken charges =   0.00000
 Mulliken charges with hydrogens summed into heavy atoms:
               1
     1  O    0.000000
 DipInt: DoE/N= T F RetVal/Mat= T F Init=T NMatP=  1 IDeriv=0 Min/MaxMlt=  0  4
 Entering OneElI...
 OneElI was handed  4294937173 working-precision words.
 Multipole integrals L=0 to 4 MinM= 0 MaxM= 0.
 Requested accuracy = 0.1000D-12
 ShPair: Thresh= 1.00D-13 NBox=     0 BxSize= 0.00D+00 RnKept= 2.85D+00
         NSMCal=                  528 NSMKep=                 528
 PrmmSu-InSpLW:  IPartL=    0 NPrtUS=    1 NPrtUL=    1 DoSpLW=F IThBeg=    0 IThEnd=    0 NThAct=    1.
 PrSmSu:  IncTry=   512 NBBP=            528 NTPThr=   100 NPartT=    1 Incr=           5 LDynOK=F GPUOK=F.
 PrsmSu:  NPrtUS=   1 ThrOK=F IAlg=2 LenDen=           0 ISkipM=0 DoSpLW=F IThBeg=    0 IThEnd=    0.
 Prism:   IPart=     0 DynPar=F LinDyn=F Incr=           5.
 PRISM was handed  4294894867 working-precision words and   528 shell-pairs
 IPart=  0 NShTot=         528 NBatch=          36 AvBLen=        14.7
 PrsmSu-ThDecC:  IPartSL=    0    0 NPrtUSL=    1    1 IThBeg=    0 IThEnd=    0 CPU=   -1 GPU=   -1 NThAct=    1.
 PrSmSu:  NxtVal=              6.
 Electronic moments (au):
        -10.00000000          0.00000000          0.00000000         -0.76301744
         -5.59320800         -7.17715558         -6.49374898         -0.00000000
         -0.00000000          0.00000000          0.00000000         -0.00000000
         -0.41099116          0.00000000          0.00000000         -0.36548910
          0.00000000          0.00000000          1.54581816          0.00000000
        -17.74359591        -23.57964712        -19.94995663         -0.00000000
         -0.00000000         -0.00000000         -0.00000000         -0.00000000
         -0.00000000         -6.38523772         -6.21671675         -7.86073743
          0.00000000         -0.00000000         -0.00000000
 Electronic spatial extent (au):  <R**2>=             19.2641
 DipInt: DoE/N= F T RetVal/Mat= T F Init=T NMatP=  1 IDeriv=0 Min/MaxMlt=  0  4
 Nuclear    moments (au):
         10.00000000         -0.00000000          0.00000000          0.00000000
          0.00000000          4.05061989          1.81911792          0.00000000
          0.00000000          0.00000000         -0.00000000          0.00000000
         -1.16381121         -0.00000000         -0.00000000         -0.00000000
         -0.00000000          0.00000000         -3.45526939         -0.00000000
          0.00000000          8.20376076          1.07548675          0.00000000
          0.00000000          0.00000000          0.00000000          0.00000000
          0.00000000          0.00000000          0.00000000          2.94742210
          0.00000000          0.00000000          0.00000000
 Total      moments (au):
          0.00000000         -0.00000000          0.00000000         -0.76301744
         -5.59320800         -3.12653569         -4.67463106          0.00000000
          0.00000000          0.00000000          0.00000000         -0.00000000
         -1.57480237         -0.00000000          0.00000000         -0.36548910
          0.00000000          0.00000000         -1.90945123         -0.00000000
        -17.74359591        -15.37588636        -18.87446987         -0.00000000
         -0.00000000         -0.00000000         -0.00000000         -0.00000000
         -0.00000000         -6.38523772         -6.21671675         -4.91331533
          0.00000000          0.00000000         -0.00000000
 Traceless Quadrup. (au):
         -1.12841642          1.33825590         -0.20983948          0.00000000
          0.00000000          0.00000000
 Charge=              0.0000 electrons
 Dipole moment (field-independent basis, Debye):
    X=             -0.0000    Y=              0.0000    Z=             -1.9394  Tot=              1.9394
 Quadrupole moment (field-independent basis, Debye-Ang):
   XX=             -7.5231   YY=             -4.2053   ZZ=             -6.2875
   XY=              0.0000   XZ=              0.0000   YZ=              0.0000
 Traceless Quadrupole moment (field-independent basis, Debye-Ang):
   XX=             -1.5178   YY=              1.8000   ZZ=             -0.2822
   XY=              0.0000   XZ=              0.0000   YZ=              0.0000
 Octapole moment (field-independent basis, Debye-Ang**2):
  XXX=              0.0000  YYY=             -0.0000  ZZZ=             -1.1209  XYY=             -0.0000
  XXY=              0.0000  XXZ=             -0.2601  XZZ=              0.0000  YZZ=              0.0000
  YYZ=             -1.3591  XYZ=             -0.0000
 Hexadecapole moment (field-independent basis, Debye-Ang**3):
 XXXX=             -6.6831 YYYY=             -5.7913 ZZZZ=             -7.1090 XXXY=             -0.0000
 XXXZ=             -0.0000 YYYX=             -0.0000 YYYZ=             -0.0000 ZZZX=             -0.0000
 ZZZY=             -0.0000 XXYY=             -2.4050 XXZZ=             -2.3415 YYZZ=             -1.8506
 XXYZ=              0.0000 YYXZ=              0.0000 ZZXY=             -0.0000
 N-N= 9.348825549048D+00 E-N=-1.993410796734D+02  KE= 7.602206151917D+01
 Symmetry A1   KE= 6.794241704158D+01
 Symmetry A2   KE= 4.182709868068D-29
 Symmetry B1   KE= 4.462354703984D+00
 Symmetry B2   KE= 3.617289773606D+00
 SetAtRh:  ITypeU=  23 NETotI=      -1 ICharg=  0 NETot=      10.
 StAtR1:  I=    1 I1=    1 IA=  8 C=   8.0 OKShel=TTT
                                                  SSP
                                                  224
 StAtR1:  I=    2 I1=    2 IA=  1 C=   1.0 OKShel=T
                                                  S
                                                  1
 StAtR1:  I=    3 I1=    3 IA=  1 C=   1.0 OKShel=T
                                                  S
                                                  1
          I=    1 IA=  8 I1=    1 NAtG=23 NE=   8.000 C=   8.000 Err=-3.68D-11
          I=    2 IA=  1 I1=    2 NAtG=20 NE=   1.000 C=   1.000 Err= 2.80D-12
          I=    3 IA=  1 I1=    3 NAtG=20 NE=   1.000 C=   1.000 Err= 2.80D-12
 Pruned (  99, 590) grid will be used in numerical quadrature.
 IPart=  0 IRanGd=          0 ScrnBf=T ScrnGd=T RCrit=4.00D+00 DoMicB=T.
 CutRad = 1000.00    CtRdIn =    0.00    XCrit =  15.00   ICut = 0
 Pruned (  99, 590) grid will be used in numerical quadrature.
 IPart=  0 Atom number   1 atomic number  8 has       23718 grid points.
 IPart=  0 Atom   1 batch    1 overlaps    3 atoms,    32 shells and     3 DB shells.   NGrid=      2408
 Pruned (  99, 590) grid will be used in numerical quadrature.
 Symmetry reduced    86 angular points to    86 for atom    1.
 Pruned (  99, 590) grid will be used in numerical quadrature.
 IPart=  1 IRanGd=          0 ScrnBf=T ScrnGd=T RCrit=4.00D+00 DoMicB=T.
 Pruned (  99, 590) grid will be used in numerical quadrature.
 CutRad = 1000.00    CtRdIn =    0.00    XCrit =  15.00   ICut = 0
 IPart= 12 IRanGd=          0 ScrnBf=T ScrnGd=T RCrit=4.00D+00 DoMicB=T.
 Pruned (  99, 590) grid will be used in numerical quadrature.
 Pruned (  99, 590) grid will be used in numerical quadrature.
 IPart= 10 IRanGd=          0 ScrnBf=T ScrnGd=T RCrit=4.00D+00 DoMicB=T.
 CutRad = 1000.00    CtRdIn =    0.00    XCrit =  15.00   ICut = 0
 IPart=  7 IRanGd=          0 ScrnBf=T ScrnGd=T RCrit=4.00D+00 DoMicB=T.
 CutRad = 1000.00    CtRdIn =    0.00    XCrit =  15.00   ICut = 0
 Pruned (  99, 590) grid will be used in numerical quadrature.
 IPart=  4 IRanGd=          0 ScrnBf=T ScrnGd=T RCrit=4.00D+00 DoMicB=T.
 Pruned (  99, 590) grid will be used in numerical quadrature.
 CutRad = 1000.00    CtRdIn =    0.00    XCrit =  15.00   ICut = 0
 Pruned (  99, 590) grid will be used in numerical quadrature.
 IPart= 10 Atom number   1 atomic number  8 has       23718 grid points.
 Pruned (  99, 590) grid will be used in numerical quadrature.
 IPart= 10 Atom   1 batch    3 overlaps    3 atoms,    32 shells and     3 DB shells.   NGrid=      2114
 Pruned (  99, 590) grid will be used in numerical quadrature.
 Pruned (  99, 590) grid will be used in numerical quadrature.
 Pruned (  99, 590) grid will be used in numerical quadrature.
 Pruned (  99, 590) grid will be used in numerical quadrature.
 Pruned (  99, 590) grid will be used in numerical quadrature.
 IPart=  7 Atom number   1 atomic number  8 has       23718 grid points.
 IPart=  2 IRanGd=          0 ScrnBf=T ScrnGd=T RCrit=4.00D+00 DoMicB=T.
 IPart=  7 Atom   1 batch    4 overlaps    3 atoms,    32 shells and     3 DB shells.   NGrid=      1180
 CutRad = 1000.00    CtRdIn =    0.00    XCrit =  15.00   ICut = 0
 IPart= 12 Atom number   1 atomic number  8 has       23718 grid points.
 Symmetry reduced   590 angular points to   590 for atom    1.
 Pruned (  99, 590) grid will be used in numerical quadrature.
 IPart= 12 Atom   1 batch    5 overlaps    3 atoms,    32 shells and     3 DB shells.   NGrid=      1180
 IPart=  6 IRanGd=          0 ScrnBf=T ScrnGd=T RCrit=4.00D+00 DoMicB=T.
 IPart= 15 IRanGd=          0 ScrnBf=T ScrnGd=T RCrit=4.00D+00 DoMicB=T.
 IPart=  5 IRanGd=          0 ScrnBf=T ScrnGd=T RCrit=4.00D+00 DoMicB=T.
 CutRad = 1000.00    CtRdIn =    0.00    XCrit =  15.00   ICut = 0
 IPart=  8 IRanGd=          0 ScrnBf=T ScrnGd=T RCrit=4.00D+00 DoMicB=T.
 CutRad = 1000.00    CtRdIn =    0.00    XCrit =  15.00   ICut = 0
 Pruned (  99, 590) grid will be used in numerical quadrature.
 Pruned (  99, 590) grid will be used in numerical quadrature.
 Symmetry reduced   302 angular points to   302 for atom    1.
 IPart= 13 IRanGd=          0 ScrnBf=T ScrnGd=T RCrit=4.00D+00 DoMicB=T.
 Pruned (  99, 590) grid will be used in numerical quadrature.
 Pruned (  99, 590) grid will be used in numerical quadrature.
 IPart=  1 Atom number   1 atomic number  8 has       23718 grid points.
 Symmetry reduced   590 angular points to   590 for atom    1.
 IPart=  3 IRanGd=          0 ScrnBf=T ScrnGd=T RCrit=4.00D+00 DoMicB=T.
 IPart=  8 Atom number   1 atomic number  8 has       23718 grid points.
 CutRad = 1000.00    CtRdIn =    0.00    XCrit =  15.00   ICut = 0
 CutRad = 1000.00    CtRdIn =    0.00    XCrit =  15.00   ICut = 0
 CutRad = 1000.00    CtRdIn =    0.00    XCrit =  15.00   ICut = 0
 Pruned (  99, 590) grid will be used in numerical quadrature.
 Pruned (  99, 590) grid will be used in numerical quadrature.
 IPart= 11 IRanGd=          0 ScrnBf=T ScrnGd=T RCrit=4.00D+00 DoMicB=T.
 CutRad = 1000.00    CtRdIn =    0.00    XCrit =  15.00   ICut = 0
 IPart=  9 IRanGd=          0 ScrnBf=T ScrnGd=T RCrit=4.00D+00 DoMicB=T.
 IPart=  1 Atom   1 batch    2 overlaps    3 atoms,    32 shells and     3 DB shells.   NGrid=      2522
 CutRad = 1000.00    CtRdIn =    0.00    XCrit =  15.00   ICut = 0
 CutRad = 1000.00    CtRdIn =    0.00    XCrit =  15.00   ICut = 0
 Symmetry reduced   194 angular points to   194 for atom    1.
 Pruned (  99, 590) grid will be used in numerical quadrature.
 IPart=  4 Atom number   1 atomic number  8 has       23718 grid points.
 IPart=  3 Atom number   1 atomic number  8 has       23718 grid points.
 IPart=  4 Atom   1 batch    7 overlaps    3 atoms,    32 shells and     3 DB shells.   NGrid=      1180
 Pruned (  99, 590) grid will be used in numerical quadrature.
 Pruned (  99, 590) grid will be used in numerical quadrature.
 Symmetry reduced   590 angular points to   590 for atom    1.
 CutRad = 1000.00    CtRdIn =    0.00    XCrit =  15.00   ICut = 0
 IPart=  8 Atom   1 batch    8 overlaps    3 atoms,    32 shells and     3 DB shells.   NGrid=      1180
 Pruned (  99, 590) grid will be used in numerical quadrature.
 IPart=  5 Atom number   1 atomic number  8 has       23718 grid points.
 IPart= 13 Atom number   1 atomic number  8 has       23718 grid points.
 Symmetry reduced   590 angular points to   590 for atom    1.
 Pruned (  99, 590) grid will be used in numerical quadrature.
 Pruned (  99, 590) grid will be used in numerical quadrature.
 IPart=  9 Atom number   1 atomic number  8 has       23718 grid points.
 IPart= 11 Atom number   1 atomic number  8 has       23718 grid points.
 Pruned (  99, 590) grid will be used in numerical quadrature.
 IPart= 11 Atom   1 batch   12 overlaps    3 atoms,    31 shells and     3 DB shells.   NGrid=       590
 IPart=  6 Atom number   1 atomic number  8 has       23718 grid points.
 IPart= 13 Atom   1 batch    9 overlaps    3 atoms,    32 shells and     3 DB shells.   NGrid=      1180
 IPart=  6 Atom   1 batch   11 overlaps    3 atoms,    32 shells and     3 DB shells.   NGrid=      1180
 IPart= 14 IRanGd=          0 ScrnBf=T ScrnGd=T RCrit=4.00D+00 DoMicB=T.
 Pruned (  99, 590) grid will be used in numerical quadrature.
 Symmetry reduced   590 angular points to   590 for atom    1.
 IPart=  2 Atom number   1 atomic number  8 has       23718 grid points.
 IPart=  3 Atom   1 batch   10 overlaps    3 atoms,    32 shells and     3 DB shells.   NGrid=      1180
 IPart=  9 Atom   1 batch   15 overlaps    3 atoms,    28 shells and     3 DB shells.   NGrid=       604
 IPart= 15 Atom number   1 atomic number  8 has       23718 grid points.
 Symmetry reduced   590 angular points to   590 for atom    1.
 Symmetry reduced   302 angular points to   302 for atom    1.
 IPart= 15 Atom   1 batch   13 overlaps    3 atoms,    31 shells and     3 DB shells.   NGrid=       604
 Symmetry reduced   590 angular points to   590 for atom    1.
 Symmetry reduced   302 angular points to   302 for atom    1.
 IPart=  5 Atom   1 batch   14 overlaps    3 atoms,    31 shells and     3 DB shells.   NGrid=       604
 Symmetry reduced   590 angular points to   590 for atom    1.
 Symmetry reduced   302 angular points to   302 for atom    1.
 IPart=  2 Atom   1 batch    6 overlaps    3 atoms,    32 shells and     3 DB shells.   NGrid=      1180
 CutRad = 1000.00    CtRdIn =    0.00    XCrit =  15.00   ICut = 0
 Symmetry reduced   590 angular points to   590 for atom    1.
 Pruned (  99, 590) grid will be used in numerical quadrature.
 IPart= 14 Atom number   1 atomic number  8 has       23718 grid points.
 IPart= 14 Atom   1 batch   16 overlaps    3 atoms,    27 shells and     3 DB shells.   NGrid=       604
 Symmetry reduced   302 angular points to   302 for atom    1.
 IPart= 14 Atom   1 batch   17 overlaps    3 atoms,    27 shells and     3 DB shells.   NGrid=       604
 IPart=  9 Atom   1 batch   18 overlaps    3 atoms,    18 shells and     3 DB shells.   NGrid=       604
 IPart= 11 Atom   1 batch   19 overlaps    3 atoms,    17 shells and     3 DB shells.   NGrid=       604
 Symmetry reduced   302 angular points to   302 for atom    1.
 IPart=  5 Atom   1 batch   20 overlaps    3 atoms,    10 shells and     2 DB shells.   NGrid=       604
 IPart= 15 Atom   1 batch   21 overlaps    3 atoms,     8 shells and     2 DB shells.   NGrid=       604
 IPart=  5 Atom   1 batch   22 overlaps    3 atoms,     2 shells and     0 DB shells.   NGrid=       604
 IPart= 15 Atom   1 batch   23 overlaps    3 atoms,     2 shells and     0 DB shells.   NGrid=       604
 Pruned (  99, 590) grid will be used in numerical quadrature.
 IPart= 11 Atom number   2 atomic number  1 has       23164 grid points.
 IPart= 11 Atom   2 batch    1 overlaps    3 atoms,    32 shells and     3 DB shells.   NGrid=      2838
 Symmetry reduced    86 angular points to    86 for atom    2.
 Pruned (  99, 590) grid will be used in numerical quadrature.
 IPart=  7 Atom number   2 atomic number  1 has       23164 grid points.
 IPart=  7 Atom   2 batch    2 overlaps    3 atoms,    32 shells and     3 DB shells.   NGrid=      1552
 Symmetry reduced   194 angular points to   194 for atom    2.
 Pruned (  99, 590) grid will be used in numerical quadrature.
 IPart=  9 Atom number   2 atomic number  1 has       23164 grid points.
 IPart=  9 Atom   2 batch    3 overlaps    3 atoms,    32 shells and     3 DB shells.   NGrid=      2416
 Symmetry reduced   302 angular points to   302 for atom    2.
 Pruned (  99, 590) grid will be used in numerical quadrature.
 IPart= 12 Atom number   2 atomic number  1 has       23164 grid points.
 IPart= 12 Atom   2 batch    4 overlaps    3 atoms,    32 shells and     3 DB shells.   NGrid=      1180
 Symmetry reduced   590 angular points to   590 for atom    2.
 Pruned (  99, 590) grid will be used in numerical quadrature.
 IPart= 14 Atom number   2 atomic number  1 has       23164 grid points.
 IPart= 14 Atom   2 batch    5 overlaps    3 atoms,    32 shells and     3 DB shells.   NGrid=      1180
 Pruned (  99, 590) grid will be used in numerical quadrature.
 Symmetry reduced   590 angular points to   590 for atom    2.
 IPart= 15 Atom number   2 atomic number  1 has       23164 grid points.
 IPart= 15 Atom   2 batch    6 overlaps    3 atoms,    32 shells and     3 DB shells.   NGrid=      1180
 Symmetry reduced   590 angular points to   590 for atom    2.
 Pruned (  99, 590) grid will be used in numerical quadrature.
 Pruned (  99, 590) grid will be used in numerical quadrature.
 IPart=  8 Atom number   2 atomic number  1 has       23164 grid points.
 IPart=  4 Atom number   2 atomic number  1 has       23164 grid points.
 IPart=  8 Atom   2 batch    7 overlaps    3 atoms,    32 shells and     3 DB shells.   NGrid=      1180
 IPart=  4 Atom   2 batch    8 overlaps    3 atoms,    32 shells and     3 DB shells.   NGrid=      1180
 Symmetry reduced   590 angular points to   590 for atom    2.
 Symmetry reduced   590 angular points to   590 for atom    2.
 Pruned (  99, 590) grid will be used in numerical quadrature.
 IPart= 13 Atom number   2 atomic number  1 has       23164 grid points.
 IPart= 13 Atom   2 batch    9 overlaps    3 atoms,    32 shells and     3 DB shells.   NGrid=      1180
 Symmetry reduced   590 angular points to   590 for atom    2.
 Pruned (  99, 590) grid will be used in numerical quadrature.
 Pruned (  99, 590) grid will be used in numerical quadrature.
 IPart=  5 Atom number   2 atomic number  1 has       23164 grid points.
 IPart=  3 Atom number   2 atomic number  1 has       23164 grid points.
 IPart=  5 Atom   2 batch   10 overlaps    3 atoms,    32 shells and     3 DB shells.   NGrid=      1180
 Pruned (  99, 590) grid will be used in numerical quadrature.
 Symmetry reduced   590 angular points to   590 for atom    2.
 IPart=  6 Atom number   2 atomic number  1 has       23164 grid points.
 Pruned (  99, 590) grid will be used in numerical quadrature.
 IPart=  6 Atom   2 batch   12 overlaps    3 atoms,    32 shells and     3 DB shells.   NGrid=      1180
 IPart=  3 Atom   2 batch   11 overlaps    3 atoms,    32 shells and     3 DB shells.   NGrid=      1180
 IPart=  2 Atom number   2 atomic number  1 has       23164 grid points.
 Symmetry reduced   590 angular points to   590 for atom    2.
 IPart=  2 Atom   2 batch   13 overlaps    3 atoms,    31 shells and     3 DB shells.   NGrid=       604
 Symmetry reduced   590 angular points to   590 for atom    2.
 Symmetry reduced   302 angular points to   302 for atom    2.
 Pruned (  99, 590) grid will be used in numerical quadrature.
 IPart=  0 Atom number   2 atomic number  1 has       23164 grid points.
 IPart=  0 Atom   2 batch   14 overlaps    3 atoms,    31 shells and     3 DB shells.   NGrid=       604
 Symmetry reduced   302 angular points to   302 for atom    2.
 IPart=  2 Atom   2 batch   15 overlaps    3 atoms,    25 shells and     3 DB shells.   NGrid=       604
 Pruned (  99, 590) grid will be used in numerical quadrature.
 IPart= 10 Atom number   2 atomic number  1 has       23164 grid points.
 IPart= 10 Atom   2 batch   16 overlaps    3 atoms,    24 shells and     3 DB shells.   NGrid=       604
 Symmetry reduced   302 angular points to   302 for atom    2.
 IPart= 12 Atom   2 batch   17 overlaps    3 atoms,    18 shells and     3 DB shells.   NGrid=       604
 Symmetry reduced   302 angular points to   302 for atom    2.
 IPart= 15 Atom   2 batch   18 overlaps    3 atoms,    15 shells and     3 DB shells.   NGrid=       604
 Symmetry reduced   302 angular points to   302 for atom    2.
 Pruned (  99, 590) grid will be used in numerical quadrature.
 IPart=  1 Atom number   2 atomic number  1 has       23164 grid points.
 IPart=  1 Atom   2 batch   19 overlaps    3 atoms,     8 shells and     2 DB shells.   NGrid=       604
 Symmetry reduced   302 angular points to   302 for atom    2.
 IPart=  8 Atom   2 batch   20 overlaps    3 atoms,     6 shells and     0 DB shells.   NGrid=       604
 Symmetry reduced   302 angular points to   302 for atom    2.
 IPart= 13 Atom   2 batch   21 overlaps    3 atoms,     2 shells and     0 DB shells.   NGrid=       604
 IPart=  4 Atom   2 batch   22 overlaps    3 atoms,     1 shells and     0 DB shells.   NGrid=       302
 Symmetry reduced   302 angular points to   302 for atom    2.
 Symmetry reduced   302 angular points to   302 for atom    2.
 Pruned (  99, 590) grid will be used in numerical quadrature.
 IPart=  6 Atom number   3 atomic number  1 has       23164 grid points.
 IPart=  6 Atom   3 batch    1 overlaps    3 atoms,    32 shells and     3 DB shells.   NGrid=      2838
 Symmetry reduced    86 angular points to    86 for atom    3.
 Pruned (  99, 590) grid will be used in numerical quadrature.
 IPart=  3 Atom number   3 atomic number  1 has       23164 grid points.
 Pruned (  99, 590) grid will be used in numerical quadrature.
 IPart=  3 Atom   3 batch    2 overlaps    3 atoms,    32 shells and     3 DB shells.   NGrid=      1552
 IPart= 14 Atom number   3 atomic number  1 has       23164 grid points.
 Symmetry reduced   194 angular points to   194 for atom    3.
 IPart= 14 Atom   3 batch    3 overlaps    3 atoms,    32 shells and     3 DB shells.   NGrid=      2416
 Pruned (  99, 590) grid will be used in numerical quadrature.
 Symmetry reduced   302 angular points to   302 for atom    3.
 IPart=  5 Atom number   3 atomic number  1 has       23164 grid points.
 IPart=  5 Atom   3 batch    4 overlaps    3 atoms,    32 shells and     3 DB shells.   NGrid=      1180
 Symmetry reduced   590 angular points to   590 for atom    3.
 Pruned (  99, 590) grid will be used in numerical quadrature.
 Pruned (  99, 590) grid will be used in numerical quadrature.
 IPart= 10 Atom number   3 atomic number  1 has       23164 grid points.
 IPart=  0 Atom number   3 atomic number  1 has       23164 grid points.
 IPart= 10 Atom   3 batch    5 overlaps    3 atoms,    32 shells and     3 DB shells.   NGrid=      1180
 IPart=  0 Atom   3 batch    6 overlaps    3 atoms,    32 shells and     3 DB shells.   NGrid=      1180
 Symmetry reduced   590 angular points to   590 for atom    3.
 Symmetry reduced   590 angular points to   590 for atom    3.
 Pruned (  99, 590) grid will be used in numerical quadrature.
 Pruned (  99, 590) grid will be used in numerical quadrature.
 IPart=  7 Atom number   3 atomic number  1 has       23164 grid points.
 IPart=  2 Atom number   3 atomic number  1 has       23164 grid points.
 IPart=  7 Atom   3 batch    7 overlaps    3 atoms,    32 shells and     3 DB shells.   NGrid=      1180
 IPart=  2 Atom   3 batch    8 overlaps    3 atoms,    32 shells and     3 DB shells.   NGrid=      1180
 Pruned (  99, 590) grid will be used in numerical quadrature.
 Symmetry reduced   590 angular points to   590 for atom    3.
 Symmetry reduced   590 angular points to   590 for atom    3.
 Pruned (  99, 590) grid will be used in numerical quadrature.
 IPart=  1 Atom number   3 atomic number  1 has       23164 grid points.
 IPart=  4 Atom number   3 atomic number  1 has       23164 grid points.
 IPart=  1 Atom   3 batch    9 overlaps    3 atoms,    32 shells and     3 DB shells.   NGrid=      1180
 IPart=  4 Atom   3 batch   10 overlaps    3 atoms,    32 shells and     3 DB shells.   NGrid=      1180
 Symmetry reduced   590 angular points to   590 for atom    3.
 Symmetry reduced   590 angular points to   590 for atom    3.
 Pruned (  99, 590) grid will be used in numerical quadrature.
 Pruned (  99, 590) grid will be used in numerical quadrature.
 IPart= 15 Atom number   3 atomic number  1 has       23164 grid points.
 IPart=  8 Atom number   3 atomic number  1 has       23164 grid points.
 IPart= 15 Atom   3 batch   11 overlaps    3 atoms,    32 shells and     3 DB shells.   NGrid=      1180
 IPart=  8 Atom   3 batch   12 overlaps    3 atoms,    32 shells and     3 DB shells.   NGrid=      1180
 Symmetry reduced   590 angular points to   590 for atom    3.
 Symmetry reduced   590 angular points to   590 for atom    3.
 Pruned (  99, 590) grid will be used in numerical quadrature.
 IPart= 12 Atom number   3 atomic number  1 has       23164 grid points.
 IPart= 12 Atom   3 batch   13 overlaps    3 atoms,    31 shells and     3 DB shells.   NGrid=       604
 Symmetry reduced   302 angular points to   302 for atom    3.
 Pruned (  99, 590) grid will be used in numerical quadrature.
 IPart= 13 Atom number   3 atomic number  1 has       23164 grid points.
 IPart= 13 Atom   3 batch   14 overlaps    3 atoms,    31 shells and     3 DB shells.   NGrid=       604
 Symmetry reduced   302 angular points to   302 for atom    3.
 IPart= 12 Atom   3 batch   15 overlaps    3 atoms,    25 shells and     3 DB shells.   NGrid=       604
 IPart= 13 Atom   3 batch   16 overlaps    3 atoms,    24 shells and     3 DB shells.   NGrid=       604
 Pruned (  99, 590) grid will be used in numerical quadrature.
 IPart=  9 Atom number   3 atomic number  1 has       23164 grid points.
 IPart=  9 Atom   3 batch   17 overlaps    3 atoms,    18 shells and     3 DB shells.   NGrid=       604
 Symmetry reduced   302 angular points to   302 for atom    3.
 Pruned (  99, 590) grid will be used in numerical quadrature.
 IPart= 11 Atom number   3 atomic number  1 has       23164 grid points.
 IPart= 11 Atom   3 batch   18 overlaps    3 atoms,    15 shells and     3 DB shells.   NGrid=       604
 Symmetry reduced   302 angular points to   302 for atom    3.
 IPart=  5 Atom   3 batch   19 overlaps    3 atoms,     8 shells and     2 DB shells.   NGrid=       604
 Symmetry reduced   302 angular points to   302 for atom    3.
 IPart= 10 Atom   3 batch   20 overlaps    3 atoms,     6 shells and     0 DB shells.   NGrid=       604
 IPart=  0 Atom   3 batch   21 overlaps    3 atoms,     2 shells and     0 DB shells.   NGrid=       604
 Symmetry reduced   302 angular points to   302 for atom    3.
 Symmetry reduced   302 angular points to   302 for atom    3.
 IPart=  7 Atom   3 batch   22 overlaps    3 atoms,     1 shells and     0 DB shells.   NGrid=       302
 Symmetry reduced   302 angular points to   302 for atom    3.
 There are a total of       70046 grid points.
 ElSum from          density=       10.0000000120
 ElSum from atomic densities=       10.0000000183

 Hirshfeld populations at iteration   1 (CX, CA, CB, DipXYZ):
               1          2          3          4          5          6
     1  O    0.000003   4.157030   4.157030   0.000000   0.000000  -0.152393
     2  H    0.000001   0.421485   0.421485   0.000000   0.194403  -0.137875
     3  H    0.000001   0.421485   0.421485   0.000000  -0.194403  -0.137875
       Tot   0.000005   5.000000   5.000000   0.000000   0.000000  -0.428143

 Dip from Atomic Chgs             -0.000000   0.000000  -0.334874
         Total Dipole              0.000000   0.000000  -0.763017

 Hirshfeld charges, spin densities, dipoles, and CM5 charges using IRadAn=      5:
              Q-H        S-H        Dx         Dy         Dz        Q-CM5   
     1  O   -0.314059   0.000000   0.000000   0.000000  -0.152393  -0.664325
     2  H    0.157030   0.000000   0.000000   0.194403  -0.137875   0.332162
     3  H    0.157030   0.000000   0.000000  -0.194403  -0.137875   0.332162
       Tot  -0.000000   0.000000   0.000000   0.000000  -0.428143  -0.000000
 Hirshfeld charges with hydrogens summed into heavy atoms:
              Q-H       Q-CM5   
     1  O   -0.000000  -0.000000
 
 EQQ=  0.00000000000     EQD=  0.00000000000     EDD= 0.665823039265E-02
 EQQ+QD+DD= 0.665823039265E-02
 
 Entering OneElI...
 OneElI was handed  4294945129 working-precision words.
 Calculate electrostatic properties
    NBasis =    92  MinDer = 0  MaxDer = 0
    NGrid  =     3  NMatD  =   1
 Requested accuracy = 0.1000D-12
 ShPair: Thresh= 1.00D-13 NBox=     0 BxSize= 0.00D+00 RnKept= 2.85D+00
         NSMCal=                  528 NSMKep=                 528
 PrmmSu-InSpLW:  IPartL=    0 NPrtUS=   16 NPrtUL=    1 DoSpLW=F IThBeg=    0 IThEnd=   15 NThAct=   16.
 PrSmSu:  IncTry=   512 NBBP=           1584 NTPThr=   100 NPartT=   16 Incr=           1 LDynOK=F GPUOK=F.
 PrsmSu:  NPrtUS=  16 ThrOK=T IAlg=2 LenDen=           0 ISkipM=0 DoSpLW=F IThBeg=    0 IThEnd=   15.
 Prism:   IPart=     0 DynPar=F LinDyn=F Incr=           1.
 PRISM was handed   268421441 working-precision words and   528 shell-pairs
 PRISM was handed   268421441 working-precision words and   528 shell-pairs
 PRISM was handed   268421441 working-precision words and   528 shell-pairs
 PRISM was handed   268421441 working-precision words and   528 shell-pairs
 PRISM was handed   268421441 working-precision words and   528 shell-pairs
 PRISM was handed   268421441 working-precision words and   528 shell-pairs
 PRISM was handed   268421441 working-precision words and   528 shell-pairs
 PRISM was handed   268421441 working-precision words and   528 shell-pairs
 PRISM was handed   268421441 working-precision words and   528 shell-pairs
 PRISM was handed   268421441 working-precision words and   528 shell-pairs
 PRISM was handed   268421441 working-precision words and   528 shell-pairs
 PRISM was handed   268421441 working-precision words and   528 shell-pairs
 PRISM was handed   268421441 working-precision words and   528 shell-pairs
 PRISM was handed   268421441 working-precision words and   528 shell-pairs
 PRISM was handed   268421441 working-precision words and   528 shell-pairs
 PRISM was handed   268421441 working-precision words and   528 shell-pairs
 IPart=  9 NShTot=          87 NBatch=          29 AvBLen=         3.0
 PrsmSu-ThDecC:  IPartSL=    9    0 NPrtUSL=   16    1 IThBeg=    0 IThEnd=   15 CPU=   -1 GPU=   -1 NThAct=   16.
 IPart= 14 NShTot=          66 NBatch=          22 AvBLen=         3.0
 PrsmSu-ThDecC:  IPartSL=   14    0 NPrtUSL=   16    1 IThBeg=    0 IThEnd=   15 CPU=   -1 GPU=   -1 NThAct=   15.
 IPart= 15 NShTot=          60 NBatch=          20 AvBLen=         3.0
 IPart= 12 NShTot=          78 NBatch=          26 AvBLen=         3.0
 PrsmSu-ThDecC:  IPartSL=   15    0 NPrtUSL=   16    1 IThBeg=    0 IThEnd=   15 CPU=   -1 GPU=   -1 NThAct=   14.
 PrsmSu-ThDecC:  IPartSL=   12    0 NPrtUSL=   16    1 IThBeg=    0 IThEnd=   15 CPU=   -1 GPU=   -1 NThAct=   13.
 IPart=  0 NShTot=         165 NBatch=          55 AvBLen=         3.0
 PrsmSu-ThDecC:  IPartSL=    0    0 NPrtUSL=   16    1 IThBeg=    0 IThEnd=   15 CPU=   -1 GPU=   -1 NThAct=   12.
 IPart=  8 NShTot=          99 NBatch=          33 AvBLen=         3.0
 IPart= 13 NShTot=          72 NBatch=          24 AvBLen=         3.0
 IPart=  4 NShTot=         108 NBatch=          36 AvBLen=         3.0
 IPart=  5 NShTot=         108 NBatch=          36 AvBLen=         3.0
 IPart=  1 NShTot=         144 NBatch=          48 AvBLen=         3.0
 IPart= 11 NShTot=          81 NBatch=          27 AvBLen=         3.0
 IPart=  3 NShTot=         111 NBatch=          37 AvBLen=         3.0
 IPart=  7 NShTot=          99 NBatch=          33 AvBLen=         3.0
 IPart= 10 NShTot=          84 NBatch=          28 AvBLen=         3.0
 PrsmSu-ThDecC:  IPartSL=    8    0 NPrtUSL=   16    1 IThBeg=    0 IThEnd=   15 CPU=   -1 GPU=   -1 NThAct=   11.
 IPart=  2 NShTot=         114 NBatch=          38 AvBLen=         3.0
 PrsmSu-ThDecC:  IPartSL=    5    0 NPrtUSL=   16    1 IThBeg=    0 IThEnd=   15 CPU=   -1 GPU=   -1 NThAct=   10.
 PrsmSu-ThDecC:  IPartSL=    2    0 NPrtUSL=   16    1 IThBeg=    0 IThEnd=   15 CPU=   -1 GPU=   -1 NThAct=    9.
 PrsmSu-ThDecC:  IPartSL=   11    0 NPrtUSL=   16    1 IThBeg=    0 IThEnd=   15 CPU=   -1 GPU=   -1 NThAct=    8.
 PrsmSu-ThDecC:  IPartSL=   10    0 NPrtUSL=   16    1 IThBeg=    0 IThEnd=   15 CPU=   -1 GPU=   -1 NThAct=    7.
 IPart=  6 NShTot=         108 NBatch=          36 AvBLen=         3.0
 PrsmSu-ThDecC:  IPartSL=    7    0 NPrtUSL=   16    1 IThBeg=    0 IThEnd=   15 CPU=   -1 GPU=   -1 NThAct=    6.
 PrsmSu-ThDecC:  IPartSL=    6    0 NPrtUSL=   16    1 IThBeg=    0 IThEnd=   15 CPU=   -1 GPU=   -1 NThAct=    5.
 PrsmSu-ThDecC:  IPartSL=    4    0 NPrtUSL=   16    1 IThBeg=    0 IThEnd=   15 CPU=   -1 GPU=   -1 NThAct=    4.
 PrsmSu-ThDecC:  IPartSL=   13    0 NPrtUSL=   16    1 IThBeg=    0 IThEnd=   15 CPU=   -1 GPU=   -1 NThAct=    3.
 PrsmSu-ThDecC:  IPartSL=    3    0 NPrtUSL=   16    1 IThBeg=    0 IThEnd=   15 CPU=   -1 GPU=   -1 NThAct=    2.
 PrsmSu-ThDecC:  IPartSL=    1    0 NPrtUSL=   16    1 IThBeg=    0 IThEnd=   15 CPU=   -1 GPU=   -1 NThAct=    1.
 PrSmSu:  NxtVal=             17.
 --------------------------------------------------------
       Center         ----      EFG at Nuclei      ----
                      3XX-RR        3YY-RR        3ZZ-RR
 --------------------------------------------------------
     1   Atom        1.714592     -1.598695     -0.115897
     2   Atom        0.307438     -0.277849     -0.029589
     3   Atom        0.307438     -0.277849     -0.029589
 --------------------------------------------------------
                        XY            XZ            YZ
 --------------------------------------------------------
     1   Atom        0.000000      0.000000      0.000000
     2   Atom       -0.000000      0.000000      0.377813
     3   Atom       -0.000000     -0.000000     -0.377813
 --------------------------------------------------------


 ---------------------------------------------------------------------------------
              Nuclear Quadrupole Coupling Constant in Principal Axis System
 ---------------------------------------------------------------------------------

       Atom             a.u.   MegaHertz   Gauss  10(-4) cm-1        Axes


 ---------------------------------------------------------------------------------

 No NMR shielding tensors so no spin-rotation constants.
 Leave Link  601 at Tue Sep 30 16:58:54 2025, MaxMem=  4294967296 cpu:               2.1 elap:               0.2
 (Enter /software/sse/easybuild/prefix/software/Gaussian/16.C.01-avx2-nsc1/g16/l602.exe)
 FitSet:  NAtFit=     3 NAtPot=     3 NAtFrz=     0 MDM=     7 TotChg=   0.00000
 Merz-Kollman atomic radii used.
 Atom Element Radius
    1     8    1.40
    2     1    1.20
    3     1    1.20
 Generate VDW surfaces: Layer= 4 Dens= 6 Start= 1.400 Inc= 0.200

 **********************************************************************

            Electrostatic Properties Using The SCF Density.

 **********************************************************************

       Atomic Center    1 is at   0.000000 -0.000000  0.112850
       Atomic Center    2 is at   0.000000  0.753090 -0.451400
       Atomic Center    3 is at  -0.000000 -0.753090 -0.451400
      ESP Fit Center    4 is at   0.000000 -0.000000  2.072850
      ESP Fit Center    5 is at   0.407507 -0.000000  2.030019
      ESP Fit Center    6 is at   0.203753  0.352911  2.030019
      ESP Fit Center    7 is at  -0.203753  0.352911  2.030019
      ESP Fit Center    8 is at  -0.407507  0.000000  2.030019
      ESP Fit Center    9 is at  -0.203753 -0.352911  2.030019
      ESP Fit Center   10 is at   0.203753 -0.352911  2.030019
      ESP Fit Center   11 is at   0.797204 -0.000000  1.903399
      ESP Fit Center   12 is at   0.690399  0.398602  1.903399
      ESP Fit Center   13 is at   0.398602  0.690399  1.903399
      ESP Fit Center   14 is at   0.000000  0.797204  1.903399
      ESP Fit Center   15 is at  -0.398602  0.690399  1.903399
      ESP Fit Center   16 is at  -0.690399  0.398602  1.903399
      ESP Fit Center   17 is at  -0.797204  0.000000  1.903399
      ESP Fit Center   18 is at  -0.690399 -0.398602  1.903399
      ESP Fit Center   19 is at  -0.398602 -0.690399  1.903399
      ESP Fit Center   20 is at  -0.000000 -0.797204  1.903399
      ESP Fit Center   21 is at   0.398602 -0.690399  1.903399
      ESP Fit Center   22 is at   0.690399 -0.398602  1.903399
      ESP Fit Center   23 is at   1.152059 -0.000000  1.698523
      ESP Fit Center   24 is at   1.074263  0.416172  1.698523
      ESP Fit Center   25 is at   0.851382  0.776137  1.698523
      ESP Fit Center   26 is at   0.513517  1.031281  1.698523
      ESP Fit Center   27 is at   0.106299  1.147145  1.698523
      ESP Fit Center   28 is at  -0.315276  1.108080  1.698523
      ESP Fit Center   29 is at  -0.694271  0.919363  1.698523
      ESP Fit Center   30 is at  -0.979500  0.606481  1.698523
      ESP Fit Center   31 is at  -1.132443  0.211690  1.698523
      ESP Fit Center   32 is at  -1.132443 -0.211690  1.698523
      ESP Fit Center   33 is at  -0.979500 -0.606481  1.698523
      ESP Fit Center   34 is at  -0.694271 -0.919363  1.698523
      ESP Fit Center   35 is at  -0.315276 -1.108080  1.698523
      ESP Fit Center   36 is at   0.106299 -1.147145  1.698523
      ESP Fit Center   37 is at   0.513517 -1.031281  1.698523
      ESP Fit Center   38 is at   0.851382 -0.776137  1.698523
      ESP Fit Center   39 is at   1.074263 -0.416172  1.698523
      ESP Fit Center   40 is at   1.456564 -0.000000  1.424346
      ESP Fit Center   41 is at   1.397563  0.410361  1.424346
      ESP Fit Center   42 is at   1.225339  0.787478  1.424346
      ESP Fit Center   43 is at   0.953846  1.100798  1.424346
      ESP Fit Center   44 is at   0.605078  1.324937  1.424346
      ESP Fit Center   45 is at   0.207291  1.441738  1.424346
      ESP Fit Center   46 is at  -0.207291  1.441738  1.424346
      ESP Fit Center   47 is at  -0.605078  1.324937  1.424346
      ESP Fit Center   48 is at  -0.953846  1.100798  1.424346
      ESP Fit Center   49 is at  -1.225339  0.787478  1.424346
      ESP Fit Center   50 is at  -1.397563  0.410361  1.424346
      ESP Fit Center   51 is at  -1.456564  0.000000  1.424346
      ESP Fit Center   52 is at  -1.397563 -0.410361  1.424346
      ESP Fit Center   53 is at  -1.225339 -0.787478  1.424346
      ESP Fit Center   54 is at  -0.953846 -1.100798  1.424346
      ESP Fit Center   55 is at  -0.605078 -1.324937  1.424346
      ESP Fit Center   56 is at  -0.207291 -1.441738  1.424346
      ESP Fit Center   57 is at   0.207291 -1.441738  1.424346
      ESP Fit Center   58 is at   0.605078 -1.324937  1.424346
      ESP Fit Center   59 is at   0.953846 -1.100798  1.424346
      ESP Fit Center   60 is at   1.225339 -0.787478  1.424346
      ESP Fit Center   61 is at   1.397563 -0.410361  1.424346
      ESP Fit Center   62 is at   1.697410 -0.000000  1.092850
      ESP Fit Center   63 is at   1.644083  0.422129  1.092850
      ESP Fit Center   64 is at   1.487452  0.817733  1.092850
      ESP Fit Center   65 is at   1.237358  1.161957  1.092850
      ESP Fit Center   66 is at   0.909518  1.433170  1.092850
      ESP Fit Center   67 is at   0.524528  1.614333  1.092850
      ESP Fit Center   68 is at   0.106581  1.694060  1.092850
      ESP Fit Center   69 is at  -0.318063  1.667344  1.092850
      ESP Fit Center   70 is at  -0.722722  1.535862  1.092850
      ESP Fit Center   71 is at  -1.081970  1.307877  1.092850
      ESP Fit Center   72 is at  -1.373233  0.997712  1.092850
      ESP Fit Center   73 is at  -1.578212  0.624858  1.092850
      ESP Fit Center   74 is at  -1.684025  0.212742  1.092850
      ESP Fit Center   75 is at  -1.684025 -0.212742  1.092850
      ESP Fit Center   76 is at  -1.578212 -0.624858  1.092850
      ESP Fit Center   77 is at  -1.373233 -0.997712  1.092850
      ESP Fit Center   78 is at  -1.081970 -1.307877  1.092850
      ESP Fit Center   79 is at  -0.722722 -1.535862  1.092850
      ESP Fit Center   80 is at  -0.318063 -1.667344  1.092850
      ESP Fit Center   81 is at   0.106581 -1.694060  1.092850
      ESP Fit Center   82 is at   0.524528 -1.614333  1.092850
      ESP Fit Center   83 is at   0.909518 -1.433170  1.092850
      ESP Fit Center   84 is at   1.237358 -1.161957  1.092850
      ESP Fit Center   85 is at   1.487452 -0.817733  1.092850
      ESP Fit Center   86 is at   1.644083 -0.422129  1.092850
      ESP Fit Center   87 is at   1.864071 -0.000000  0.718523
      ESP Fit Center   88 is at   1.817335  0.414795  0.718523
      ESP Fit Center   89 is at   1.679470  0.808790  0.718523
      ESP Fit Center   90 is at   1.457389  1.162229  0.718523
      ESP Fit Center   91 is at   1.162229  1.457389  0.718523
      ESP Fit Center   92 is at   0.808790  1.679470  0.718523
      ESP Fit Center   93 is at  -0.808790  1.679470  0.718523
      ESP Fit Center   94 is at  -1.162229  1.457389  0.718523
      ESP Fit Center   95 is at  -1.457389  1.162229  0.718523
      ESP Fit Center   96 is at  -1.679470  0.808790  0.718523
      ESP Fit Center   97 is at  -1.817335  0.414795  0.718523
      ESP Fit Center   98 is at  -1.864071  0.000000  0.718523
      ESP Fit Center   99 is at  -1.817335 -0.414795  0.718523
      ESP Fit Center  100 is at  -1.679470 -0.808790  0.718523
      ESP Fit Center  101 is at  -1.457389 -1.162229  0.718523
      ESP Fit Center  102 is at  -1.162229 -1.457389  0.718523
      ESP Fit Center  103 is at  -0.808790 -1.679470  0.718523
      ESP Fit Center  104 is at   0.808790 -1.679470  0.718523
      ESP Fit Center  105 is at   1.162229 -1.457389  0.718523
      ESP Fit Center  106 is at   1.457389 -1.162229  0.718523
      ESP Fit Center  107 is at   1.679470 -0.808790  0.718523
      ESP Fit Center  108 is at   1.817335 -0.414795  0.718523
      ESP Fit Center  109 is at   1.949263 -0.000000  0.317726
      ESP Fit Center  110 is at   1.903690  0.419034  0.317726
      ESP Fit Center  111 is at   1.769103  0.818474  0.317726
      ESP Fit Center  112 is at   1.551795  1.179644  0.317726
      ESP Fit Center  113 is at  -1.415156  1.340507  0.317726
      ESP Fit Center  114 is at  -1.670240  1.004950  0.317726
      ESP Fit Center  115 is at  -1.847225  0.622403  0.317726
      ESP Fit Center  116 is at  -1.937836  0.210752  0.317726
      ESP Fit Center  117 is at  -1.937836 -0.210752  0.317726
      ESP Fit Center  118 is at  -1.847225 -0.622403  0.317726
      ESP Fit Center  119 is at  -1.670240 -1.004950  0.317726
      ESP Fit Center  120 is at  -1.415156 -1.340507  0.317726
      ESP Fit Center  121 is at   1.551795 -1.179644  0.317726
      ESP Fit Center  122 is at   1.769103 -0.818474  0.317726
      ESP Fit Center  123 is at   1.903690 -0.419034  0.317726
      ESP Fit Center  124 is at   1.949263 -0.000000 -0.092026
      ESP Fit Center  125 is at   1.903690  0.419034 -0.092026
      ESP Fit Center  126 is at   1.769103  0.818474 -0.092026
      ESP Fit Center  127 is at  -1.670240  1.004950 -0.092026
      ESP Fit Center  128 is at  -1.847225  0.622403 -0.092026
      ESP Fit Center  129 is at  -1.937836  0.210752 -0.092026
      ESP Fit Center  130 is at  -1.937836 -0.210752 -0.092026
      ESP Fit Center  131 is at  -1.847225 -0.622403 -0.092026
      ESP Fit Center  132 is at  -1.670240 -1.004950 -0.092026
      ESP Fit Center  133 is at   1.769103 -0.818474 -0.092026
      ESP Fit Center  134 is at   1.903690 -0.419034 -0.092026
      ESP Fit Center  135 is at   1.864071 -0.000000 -0.492823
      ESP Fit Center  136 is at   1.817335  0.414795 -0.492823
      ESP Fit Center  137 is at   1.679470  0.808790 -0.492823
      ESP Fit Center  138 is at  -1.679470  0.808790 -0.492823
      ESP Fit Center  139 is at  -1.817335  0.414795 -0.492823
      ESP Fit Center  140 is at  -1.864071  0.000000 -0.492823
      ESP Fit Center  141 is at  -1.817335 -0.414795 -0.492823
      ESP Fit Center  142 is at  -1.679470 -0.808790 -0.492823
      ESP Fit Center  143 is at   1.679470 -0.808790 -0.492823
      ESP Fit Center  144 is at   1.817335 -0.414795 -0.492823
      ESP Fit Center  145 is at   1.697410 -0.000000 -0.867150
      ESP Fit Center  146 is at   1.644083  0.422129 -0.867150
      ESP Fit Center  147 is at  -1.684025  0.212742 -0.867150
      ESP Fit Center  148 is at  -1.684025 -0.212742 -0.867150
      ESP Fit Center  149 is at   1.644083 -0.422129 -0.867150
      ESP Fit Center  150 is at   1.456564 -0.000000 -1.198646
      ESP Fit Center  151 is at  -1.456564  0.000000 -1.198646
      ESP Fit Center  152 is at   1.152059 -0.000000 -1.472823
      ESP Fit Center  153 is at   0.529510  1.816490  0.736539
      ESP Fit Center  154 is at   0.109609  1.935962  0.736539
      ESP Fit Center  155 is at  -0.325095  1.895681  0.736539
      ESP Fit Center  156 is at   1.202114  1.572677  0.388600
      ESP Fit Center  157 is at   0.907129  1.890594  0.388600
      ESP Fit Center  158 is at   0.531543  2.107439  0.388600
      ESP Fit Center  159 is at   0.108727  2.203944  0.388600
      ESP Fit Center  160 is at  -0.323751  2.171535  0.388600
      ESP Fit Center  161 is at  -0.727461  2.013090  0.388600
      ESP Fit Center  162 is at  -1.066534  1.742689  0.388600
      ESP Fit Center  163 is at   1.567461  1.173090 -0.016584
      ESP Fit Center  164 is at   1.405347  1.564468 -0.016584
      ESP Fit Center  165 is at   1.147461  1.900551 -0.016584
      ESP Fit Center  166 is at   0.811378  2.158437 -0.016584
      ESP Fit Center  167 is at   0.420000  2.320551 -0.016584
      ESP Fit Center  168 is at   0.000000  2.375845 -0.016584
      ESP Fit Center  169 is at  -0.420000  2.320551 -0.016584
      ESP Fit Center  170 is at  -0.811378  2.158437 -0.016584
      ESP Fit Center  171 is at  -1.147461  1.900551 -0.016584
      ESP Fit Center  172 is at  -1.405347  1.564468 -0.016584
      ESP Fit Center  173 is at  -1.567461  1.173090 -0.016584
      ESP Fit Center  174 is at   1.627220  1.170889 -0.451400
      ESP Fit Center  175 is at   1.472195  1.562436 -0.451400
      ESP Fit Center  176 is at   1.224667  1.903129 -0.451400
      ESP Fit Center  177 is at   0.900189  2.171561 -0.451400
      ESP Fit Center  178 is at   0.519149  2.350865 -0.451400
      ESP Fit Center  179 is at   0.105488  2.429775 -0.451400
      ESP Fit Center  180 is at  -0.314801  2.403333 -0.451400
      ESP Fit Center  181 is at  -0.715309  2.273199 -0.451400
      ESP Fit Center  182 is at  -1.070872  2.047552 -0.451400
      ESP Fit Center  183 is at  -1.359149  1.740569 -0.451400
      ESP Fit Center  184 is at  -1.562024  1.371539 -0.451400
      ESP Fit Center  185 is at  -1.666753  0.963650 -0.451400
      ESP Fit Center  186 is at   1.622755  0.753090 -0.886216
      ESP Fit Center  187 is at   1.567461  1.173090 -0.886216
      ESP Fit Center  188 is at   1.405347  1.564468 -0.886216
      ESP Fit Center  189 is at   1.147461  1.900551 -0.886216
      ESP Fit Center  190 is at   0.811378  2.158437 -0.886216
      ESP Fit Center  191 is at   0.420000  2.320551 -0.886216
      ESP Fit Center  192 is at   0.000000  2.375845 -0.886216
      ESP Fit Center  193 is at  -0.420000  2.320551 -0.886216
      ESP Fit Center  194 is at  -0.811378  2.158437 -0.886216
      ESP Fit Center  195 is at  -1.147461  1.900551 -0.886216
      ESP Fit Center  196 is at  -1.405347  1.564468 -0.886216
      ESP Fit Center  197 is at  -1.567461  1.173090 -0.886216
      ESP Fit Center  198 is at  -1.622755  0.753090 -0.886216
      ESP Fit Center  199 is at   1.454923  0.753090 -1.291400
      ESP Fit Center  200 is at   1.390285  1.181936 -1.291400
      ESP Fit Center  201 is at   1.202114  1.572677 -1.291400
      ESP Fit Center  202 is at   0.907129  1.890594 -1.291400
      ESP Fit Center  203 is at   0.531543  2.107439 -1.291400
      ESP Fit Center  204 is at   0.108727  2.203944 -1.291400
      ESP Fit Center  205 is at  -0.323751  2.171535 -1.291400
      ESP Fit Center  206 is at  -0.727461  2.013090 -1.291400
      ESP Fit Center  207 is at  -1.066534  1.742689 -1.291400
      ESP Fit Center  208 is at  -1.310840  1.384357 -1.291400
      ESP Fit Center  209 is at  -1.438672  0.969935 -1.291400
      ESP Fit Center  210 is at  -1.438672  0.536245 -1.291400
      ESP Fit Center  211 is at   1.390285  0.324244 -1.291400
      ESP Fit Center  212 is at   1.187939  0.753090 -1.639339
      ESP Fit Center  213 is at   1.107720  1.182223 -1.639339
      ESP Fit Center  214 is at   0.877898  1.553400 -1.639339
      ESP Fit Center  215 is at   0.529510  1.816490 -1.639339
      ESP Fit Center  216 is at   0.109609  1.935962 -1.639339
      ESP Fit Center  217 is at  -0.325095  1.895681 -1.639339
      ESP Fit Center  218 is at  -0.715893  1.701086 -1.639339
      ESP Fit Center  219 is at  -1.010006  1.378460 -1.639339
      ESP Fit Center  220 is at  -1.167712  0.971373 -1.639339
      ESP Fit Center  221 is at  -1.167712  0.534807 -1.639339
      ESP Fit Center  222 is at  -1.010006  0.127720 -1.639339
      ESP Fit Center  223 is at   1.107720  0.323957 -1.639339
      ESP Fit Center  224 is at   0.840000  0.753090 -1.906323
      ESP Fit Center  225 is at   0.727461  1.173090 -1.906323
      ESP Fit Center  226 is at   0.420000  1.480551 -1.906323
      ESP Fit Center  227 is at   0.000000  1.593090 -1.906323
      ESP Fit Center  228 is at  -0.420000  1.480551 -1.906323
      ESP Fit Center  229 is at  -0.727461  1.173090 -1.906323
      ESP Fit Center  230 is at  -0.840000  0.753090 -1.906323
      ESP Fit Center  231 is at  -0.727461  0.333090 -1.906323
      ESP Fit Center  232 is at  -0.420000  0.025629 -1.906323
      ESP Fit Center  233 is at   0.420000  0.025629 -1.906323
      ESP Fit Center  234 is at   0.727461  0.333090 -1.906323
      ESP Fit Center  235 is at   0.434816  0.753090 -2.074155
      ESP Fit Center  236 is at   0.217408  1.129652 -2.074155
      ESP Fit Center  237 is at  -0.217408  1.129652 -2.074155
      ESP Fit Center  238 is at  -0.434816  0.753090 -2.074155
      ESP Fit Center  239 is at  -0.217408  0.376528 -2.074155
      ESP Fit Center  240 is at   0.217408  0.376528 -2.074155
      ESP Fit Center  241 is at   0.000000  0.753090 -2.131400
      ESP Fit Center  242 is at  -0.325095 -1.895681  0.736539
      ESP Fit Center  243 is at   0.109609 -1.935962  0.736539
      ESP Fit Center  244 is at   0.529510 -1.816490  0.736539
      ESP Fit Center  245 is at  -1.066534 -1.742689  0.388600
      ESP Fit Center  246 is at  -0.727461 -2.013090  0.388600
      ESP Fit Center  247 is at  -0.323751 -2.171535  0.388600
      ESP Fit Center  248 is at   0.108727 -2.203944  0.388600
      ESP Fit Center  249 is at   0.531543 -2.107439  0.388600
      ESP Fit Center  250 is at   0.907129 -1.890594  0.388600
      ESP Fit Center  251 is at   1.202114 -1.572677  0.388600
      ESP Fit Center  252 is at  -1.567461 -1.173090 -0.016584
      ESP Fit Center  253 is at  -1.405347 -1.564468 -0.016584
      ESP Fit Center  254 is at  -1.147461 -1.900551 -0.016584
      ESP Fit Center  255 is at  -0.811378 -2.158437 -0.016584
      ESP Fit Center  256 is at  -0.420000 -2.320551 -0.016584
      ESP Fit Center  257 is at  -0.000000 -2.375845 -0.016584
      ESP Fit Center  258 is at   0.420000 -2.320551 -0.016584
      ESP Fit Center  259 is at   0.811378 -2.158437 -0.016584
      ESP Fit Center  260 is at   1.147461 -1.900551 -0.016584
      ESP Fit Center  261 is at   1.405347 -1.564468 -0.016584
      ESP Fit Center  262 is at   1.567461 -1.173090 -0.016584
      ESP Fit Center  263 is at  -1.666753 -0.963650 -0.451400
      ESP Fit Center  264 is at  -1.562024 -1.371539 -0.451400
      ESP Fit Center  265 is at  -1.359149 -1.740569 -0.451400
      ESP Fit Center  266 is at  -1.070872 -2.047552 -0.451400
      ESP Fit Center  267 is at  -0.715309 -2.273199 -0.451400
      ESP Fit Center  268 is at  -0.314801 -2.403333 -0.451400
      ESP Fit Center  269 is at   0.105488 -2.429775 -0.451400
      ESP Fit Center  270 is at   0.519149 -2.350865 -0.451400
      ESP Fit Center  271 is at   0.900189 -2.171561 -0.451400
      ESP Fit Center  272 is at   1.224667 -1.903129 -0.451400
      ESP Fit Center  273 is at   1.472195 -1.562436 -0.451400
      ESP Fit Center  274 is at   1.627220 -1.170889 -0.451400
      ESP Fit Center  275 is at   1.622755 -0.753090 -0.886216
      ESP Fit Center  276 is at  -1.622755 -0.753090 -0.886216
      ESP Fit Center  277 is at  -1.567461 -1.173090 -0.886216
      ESP Fit Center  278 is at  -1.405347 -1.564468 -0.886216
      ESP Fit Center  279 is at  -1.147461 -1.900551 -0.886216
      ESP Fit Center  280 is at  -0.811378 -2.158437 -0.886216
      ESP Fit Center  281 is at  -0.420000 -2.320551 -0.886216
      ESP Fit Center  282 is at  -0.000000 -2.375845 -0.886216
      ESP Fit Center  283 is at   0.420000 -2.320551 -0.886216
      ESP Fit Center  284 is at   0.811378 -2.158437 -0.886216
      ESP Fit Center  285 is at   1.147461 -1.900551 -0.886216
      ESP Fit Center  286 is at   1.405347 -1.564468 -0.886216
      ESP Fit Center  287 is at   1.567461 -1.173090 -0.886216
      ESP Fit Center  288 is at   1.454923 -0.753090 -1.291400
      ESP Fit Center  289 is at   1.390285 -0.324244 -1.291400
      ESP Fit Center  290 is at  -1.438672 -0.536245 -1.291400
      ESP Fit Center  291 is at  -1.438672 -0.969935 -1.291400
      ESP Fit Center  292 is at  -1.310840 -1.384357 -1.291400
      ESP Fit Center  293 is at  -1.066534 -1.742689 -1.291400
      ESP Fit Center  294 is at  -0.727461 -2.013090 -1.291400
      ESP Fit Center  295 is at  -0.323751 -2.171535 -1.291400
      ESP Fit Center  296 is at   0.108727 -2.203944 -1.291400
      ESP Fit Center  297 is at   0.531543 -2.107439 -1.291400
      ESP Fit Center  298 is at   0.907129 -1.890594 -1.291400
      ESP Fit Center  299 is at   1.202114 -1.572677 -1.291400
      ESP Fit Center  300 is at   1.390285 -1.181936 -1.291400
      ESP Fit Center  301 is at   1.187939 -0.753090 -1.639339
      ESP Fit Center  302 is at   1.107720 -0.323957 -1.639339
      ESP Fit Center  303 is at  -1.010006 -0.127720 -1.639339
      ESP Fit Center  304 is at  -1.167712 -0.534807 -1.639339
      ESP Fit Center  305 is at  -1.167712 -0.971373 -1.639339
      ESP Fit Center  306 is at  -1.010006 -1.378460 -1.639339
      ESP Fit Center  307 is at  -0.715893 -1.701086 -1.639339
      ESP Fit Center  308 is at  -0.325095 -1.895681 -1.639339
      ESP Fit Center  309 is at   0.109609 -1.935962 -1.639339
      ESP Fit Center  310 is at   0.529510 -1.816490 -1.639339
      ESP Fit Center  311 is at   0.877898 -1.553400 -1.639339
      ESP Fit Center  312 is at   1.107720 -1.182223 -1.639339
      ESP Fit Center  313 is at   0.840000 -0.753090 -1.906323
      ESP Fit Center  314 is at   0.727461 -0.333090 -1.906323
      ESP Fit Center  315 is at   0.420000 -0.025629 -1.906323
      ESP Fit Center  316 is at  -0.420000 -0.025629 -1.906323
      ESP Fit Center  317 is at  -0.727461 -0.333090 -1.906323
      ESP Fit Center  318 is at  -0.840000 -0.753090 -1.906323
      ESP Fit Center  319 is at  -0.727461 -1.173090 -1.906323
      ESP Fit Center  320 is at  -0.420000 -1.480551 -1.906323
      ESP Fit Center  321 is at  -0.000000 -1.593090 -1.906323
      ESP Fit Center  322 is at   0.420000 -1.480551 -1.906323
      ESP Fit Center  323 is at   0.727461 -1.173090 -1.906323
      ESP Fit Center  324 is at   0.434816 -0.753090 -2.074155
      ESP Fit Center  325 is at   0.217408 -0.376528 -2.074155
      ESP Fit Center  326 is at  -0.217408 -0.376528 -2.074155
      ESP Fit Center  327 is at  -0.434816 -0.753090 -2.074155
      ESP Fit Center  328 is at  -0.217408 -1.129652 -2.074155
      ESP Fit Center  329 is at   0.217408 -1.129652 -2.074155
      ESP Fit Center  330 is at   0.000000 -0.753090 -2.131400
      ESP Fit Center  331 is at   0.000000 -0.000000  2.352850
      ESP Fit Center  332 is at   0.411599 -0.000000  2.314710
      ESP Fit Center  333 is at   0.205799  0.356455  2.314710
      ESP Fit Center  334 is at  -0.205799  0.356455  2.314710
      ESP Fit Center  335 is at  -0.411599  0.000000  2.314710
      ESP Fit Center  336 is at  -0.205799 -0.356455  2.314710
      ESP Fit Center  337 is at   0.205799 -0.356455  2.314710
      ESP Fit Center  338 is at   0.809181 -0.000000  2.201588
      ESP Fit Center  339 is at   0.700772  0.404591  2.201588
      ESP Fit Center  340 is at   0.404591  0.700772  2.201588
      ESP Fit Center  341 is at   0.000000  0.809181  2.201588
      ESP Fit Center  342 is at  -0.404591  0.700772  2.201588
      ESP Fit Center  343 is at  -0.700772  0.404591  2.201588
[...]
 1419 Fit      -0.017024
 1420 Fit      -0.015453
 1421 Fit      -0.013420
 1422 Fit      -0.011094
 1423 Fit      -0.008685
 1424 Fit      -0.006436
 1425 Fit      -0.004596
 1426 Fit      -0.003388
 1427 Fit      -0.002967
 1428 Fit      -0.003388
 1429 Fit      -0.004596
 1430 Fit      -0.006436
 1431 Fit      -0.008685
 1432 Fit      -0.011094
 1433 Fit      -0.013420
 1434 Fit      -0.015453
 1435 Fit      -0.017024
 1436 Fit      -0.018014
 1437 Fit      -0.018352
 1438 Fit      -0.018014
 1439 Fit      -0.017024
 1440 Fit      -0.015453
 1441 Fit      -0.013420
 1442 Fit      -0.011094
 1443 Fit      -0.008685
 1444 Fit      -0.006436
 1445 Fit      -0.004596
 1446 Fit      -0.003388
 1447 Fit      -0.002967
 1448 Fit      -0.003388
 1449 Fit      -0.004596
 1450 Fit      -0.006436
 1451 Fit      -0.008685
 1452 Fit      -0.011094
 1453 Fit      -0.013420
 1454 Fit      -0.015453
 1455 Fit      -0.017024
 1456 Fit      -0.018014
 1457 Fit      -0.015942
 1458 Fit      -0.015564
 1459 Fit      -0.014452
 1460 Fit      -0.012676
 1461 Fit      -0.010352
 1462 Fit      -0.007651
 1463 Fit      -0.004796
 1464 Fit      -0.002056
 1465 Fit      -0.003394
 1466 Fit      -0.006227
 1467 Fit      -0.009036
 1468 Fit      -0.011573
 1469 Fit      -0.013641
 1470 Fit      -0.015097
 1471 Fit      -0.015847
 1472 Fit      -0.015847
 1473 Fit      -0.015097
 1474 Fit      -0.013641
 1475 Fit      -0.011573
 1476 Fit      -0.009036
 1477 Fit      -0.006227
 1478 Fit      -0.003394
 1479 Fit      -0.002056
 1480 Fit      -0.004796
 1481 Fit      -0.007651
 1482 Fit      -0.010352
 1483 Fit      -0.012676
 1484 Fit      -0.014452
 1485 Fit      -0.015564
 1486 Fit      -0.013086
 1487 Fit      -0.012678
 1488 Fit      -0.011472
 1489 Fit      -0.009533
 1490 Fit      -0.006968
 1491 Fit      -0.003944
 1492 Fit      -0.003944
 1493 Fit      -0.006968
 1494 Fit      -0.009533
 1495 Fit      -0.011472
 1496 Fit      -0.012678
 1497 Fit      -0.013086
 1498 Fit      -0.012678
 1499 Fit      -0.011472
 1500 Fit      -0.009533
 1501 Fit      -0.006968
 1502 Fit      -0.003944
 1503 Fit      -0.003944
 1504 Fit      -0.006968
 1505 Fit      -0.009533
 1506 Fit      -0.011472
 1507 Fit      -0.012678
 1508 Fit      -0.009788
 1509 Fit      -0.009339
 1510 Fit      -0.008013
 1511 Fit      -0.005870
 1512 Fit      -0.003019
 1513 Fit      -0.003019
 1514 Fit      -0.005870
 1515 Fit      -0.008013
 1516 Fit      -0.009339
 1517 Fit      -0.009788
 1518 Fit      -0.009339
 1519 Fit      -0.008013
 1520 Fit      -0.005870
 1521 Fit      -0.003019
 1522 Fit      -0.003019
 1523 Fit      -0.005870
 1524 Fit      -0.008013
 1525 Fit      -0.009339
 1526 Fit      -0.006073
 1527 Fit      -0.005574
 1528 Fit      -0.004095
 1529 Fit      -0.001701
 1530 Fit      -0.000194
 1531 Fit      -0.003007
 1532 Fit      -0.004954
 1533 Fit      -0.005948
 1534 Fit      -0.005948
 1535 Fit      -0.004954
 1536 Fit      -0.003007
 1537 Fit      -0.000194
 1538 Fit      -0.001701
 1539 Fit      -0.004095
 1540 Fit      -0.005574
 1541 Fit      -0.002002
 1542 Fit      -0.001466
 1543 Fit       0.000123
 1544 Fit       0.002698
 1545 Fit       0.002698
 1546 Fit       0.000123
 1547 Fit      -0.001466
 1548 Fit      -0.002002
 1549 Fit      -0.001466
 1550 Fit       0.000123
 1551 Fit       0.002698
 1552 Fit       0.002698
 1553 Fit       0.000123
 1554 Fit      -0.001466
 1555 Fit       0.002326
 1556 Fit       0.002939
 1557 Fit       0.004749
 1558 Fit       0.003698
 1559 Fit       0.002480
 1560 Fit       0.002480
 1561 Fit       0.003698
 1562 Fit       0.004749
 1563 Fit       0.002939
 1564 Fit       0.006772
 1565 Fit       0.007481
 1566 Fit       0.008358
 1567 Fit       0.006950
 1568 Fit       0.006950
 1569 Fit       0.008358
 1570 Fit       0.007481
 1571 Fit       0.011149
 1572 Fit       0.011932
 1573 Fit       0.011346
 1574 Fit       0.011346
 1575 Fit       0.011932
 1576 Fit       0.015234
 1577 Fit       0.015234
 1578 Fit       0.018778
 1579 Fit       0.018778
 1580 Fit      -0.000788
 1581 Fit       0.001152
 1582 Fit       0.002223
 1583 Fit       0.002436
 1584 Fit       0.001795
 1585 Fit       0.000292
 1586 Fit       0.000065
 1587 Fit       0.002811
 1588 Fit       0.004813
 1589 Fit       0.006080
 1590 Fit       0.006622
 1591 Fit       0.006441
 1592 Fit       0.005538
 1593 Fit       0.003904
 1594 Fit       0.001531
 1595 Fit       0.000236
 1596 Fit       0.003362
 1597 Fit       0.005911
 1598 Fit       0.007864
 1599 Fit       0.009216
 1600 Fit       0.009966
 1601 Fit       0.010116
 1602 Fit       0.009666
 1603 Fit       0.008615
 1604 Fit       0.006963
 1605 Fit       0.004710
 1606 Fit       0.001869
 1607 Fit       0.000792
 1608 Fit       0.003893
 1609 Fit       0.006618
 1610 Fit       0.008896
 1611 Fit       0.010689
 1612 Fit       0.011978
 1613 Fit       0.012754
 1614 Fit       0.013013
 1615 Fit       0.012754
 1616 Fit       0.011978
 1617 Fit       0.010689
 1618 Fit       0.008896
 1619 Fit       0.006618
 1620 Fit       0.003893
 1621 Fit       0.000792
 1622 Fit       0.004984
 1623 Fit       0.007623
 1624 Fit       0.009979
 1625 Fit       0.011960
 1626 Fit       0.013510
 1627 Fit       0.014598
 1628 Fit       0.015207
 1629 Fit       0.015329
 1630 Fit       0.014963
 1631 Fit       0.014113
 1632 Fit       0.012791
 1633 Fit       0.011021
 1634 Fit       0.008843
 1635 Fit       0.006331
 1636 Fit       0.003604
 1637 Fit       0.006589
 1638 Fit       0.008837
 1639 Fit       0.011055
 1640 Fit       0.013056
 1641 Fit       0.014725
 1642 Fit       0.015990
 1643 Fit       0.016812
 1644 Fit       0.017168
 1645 Fit       0.017049
 1646 Fit       0.016459
 1647 Fit       0.015411
 1648 Fit       0.013937
 1649 Fit       0.012091
 1650 Fit       0.009964
 1651 Fit       0.007702
 1652 Fit       0.005541
 1653 Fit       0.009027
 1654 Fit       0.010414
 1655 Fit       0.012159
 1656 Fit       0.013950
 1657 Fit       0.015583
 1658 Fit       0.016927
 1659 Fit       0.017901
 1660 Fit       0.018455
 1661 Fit       0.018567
 1662 Fit       0.018232
 1663 Fit       0.017464
 1664 Fit       0.016298
 1665 Fit       0.014796
 1666 Fit       0.013063
 1667 Fit       0.011264
 1668 Fit       0.009651
 1669 Fit       0.012802
 1670 Fit       0.013759
 1671 Fit       0.015148
 1672 Fit       0.016611
 1673 Fit       0.017909
 1674 Fit       0.018890
 1675 Fit       0.019461
 1676 Fit       0.019577
 1677 Fit       0.019230
 1678 Fit       0.018446
 1679 Fit       0.017292
 1680 Fit       0.015887
 1681 Fit       0.014425
 1682 Fit       0.013199
 1683 Fit       0.012635
 1684 Fit       0.015904
 1685 Fit       0.016489
 1686 Fit       0.017536
 1687 Fit       0.018655
 1688 Fit       0.019578
 1689 Fit       0.020140
 1690 Fit       0.020256
 1691 Fit       0.019911
 1692 Fit       0.019153
 1693 Fit       0.018106
 1694 Fit       0.016983
 1695 Fit       0.016110
 1696 Fit       0.015940
 1697 Fit       0.016286
 1698 Fit       0.018321
 1699 Fit       0.018635
 1700 Fit       0.019405
 1701 Fit       0.020170
 1702 Fit       0.020627
 1703 Fit       0.020627
 1704 Fit       0.020170
 1705 Fit       0.019405
 1706 Fit       0.018635
 1707 Fit       0.018321
 1708 Fit       0.018996
 1709 Fit       0.018996
 1710 Fit       0.020048
 1711 Fit       0.020182
 1712 Fit       0.020684
 1713 Fit       0.020929
 1714 Fit       0.020684
 1715 Fit       0.020182
 1716 Fit       0.020048
 1717 Fit       0.020936
 1718 Fit       0.022651
 1719 Fit       0.022651
 1720 Fit       0.020936
 1721 Fit       0.021084
 1722 Fit       0.021070
 1723 Fit       0.021070
 1724 Fit       0.021084
 1725 Fit       0.021899
 1726 Fit       0.021899
 1727 Fit       0.021430
 1728 Fit       0.000292
 1729 Fit       0.001795
 1730 Fit       0.002436
 1731 Fit       0.002223
 1732 Fit       0.001152
 1733 Fit      -0.000788
 1734 Fit       0.001531
 1735 Fit       0.003904
 1736 Fit       0.005538
 1737 Fit       0.006441
 1738 Fit       0.006622
 1739 Fit       0.006080
 1740 Fit       0.004813
 1741 Fit       0.002811
 1742 Fit       0.000065
 1743 Fit       0.001869
 1744 Fit       0.004710
 1745 Fit       0.006963
 1746 Fit       0.008615
 1747 Fit       0.009666
 1748 Fit       0.010116
 1749 Fit       0.009966
 1750 Fit       0.009216
 1751 Fit       0.007864
 1752 Fit       0.005911
 1753 Fit       0.003362
 1754 Fit       0.000236
 1755 Fit       0.000792
 1756 Fit       0.003893
 1757 Fit       0.006618
 1758 Fit       0.008896
 1759 Fit       0.010689
 1760 Fit       0.011978
 1761 Fit       0.012754
 1762 Fit       0.013013
 1763 Fit       0.012754
 1764 Fit       0.011978
 1765 Fit       0.010689
 1766 Fit       0.008896
 1767 Fit       0.006618
 1768 Fit       0.003893
 1769 Fit       0.000792
 1770 Fit       0.003604
 1771 Fit       0.006331
 1772 Fit       0.008843
 1773 Fit       0.011021
 1774 Fit       0.012791
 1775 Fit       0.014113
 1776 Fit       0.014963
 1777 Fit       0.015329
 1778 Fit       0.015207
 1779 Fit       0.014598
 1780 Fit       0.013510
 1781 Fit       0.011960
 1782 Fit       0.009979
 1783 Fit       0.007623
 1784 Fit       0.004984
 1785 Fit       0.005541
 1786 Fit       0.007702
 1787 Fit       0.009964
 1788 Fit       0.012091
 1789 Fit       0.013937
 1790 Fit       0.015411
 1791 Fit       0.016459
 1792 Fit       0.017049
 1793 Fit       0.017168
 1794 Fit       0.016812
 1795 Fit       0.015990
 1796 Fit       0.014725
 1797 Fit       0.013056
 1798 Fit       0.011055
 1799 Fit       0.008837
 1800 Fit       0.006589
 1801 Fit       0.009027
 1802 Fit       0.009651
 1803 Fit       0.011264
 1804 Fit       0.013063
 1805 Fit       0.014796
 1806 Fit       0.016298
 1807 Fit       0.017464
 1808 Fit       0.018232
 1809 Fit       0.018567
 1810 Fit       0.018455
 1811 Fit       0.017901
 1812 Fit       0.016927
 1813 Fit       0.015583
 1814 Fit       0.013950
 1815 Fit       0.012159
 1816 Fit       0.010414
 1817 Fit       0.012802
 1818 Fit       0.012635
 1819 Fit       0.013199
 1820 Fit       0.014425
 1821 Fit       0.015887
 1822 Fit       0.017292
 1823 Fit       0.018446
 1824 Fit       0.019230
 1825 Fit       0.019577
 1826 Fit       0.019461
 1827 Fit       0.018890
 1828 Fit       0.017909
 1829 Fit       0.016611
 1830 Fit       0.015148
 1831 Fit       0.013759
 1832 Fit       0.015904
 1833 Fit       0.016286
 1834 Fit       0.015940
 1835 Fit       0.016110
 1836 Fit       0.016983
 1837 Fit       0.018106
 1838 Fit       0.019153
 1839 Fit       0.019911
 1840 Fit       0.020256
 1841 Fit       0.020140
 1842 Fit       0.019578
 1843 Fit       0.018655
 1844 Fit       0.017536
 1845 Fit       0.016489
 1846 Fit       0.018321
 1847 Fit       0.018996
 1848 Fit       0.018996
 1849 Fit       0.018321
 1850 Fit       0.018635
 1851 Fit       0.019405
 1852 Fit       0.020170
 1853 Fit       0.020627
 1854 Fit       0.020627
 1855 Fit       0.020170
 1856 Fit       0.019405
 1857 Fit       0.018635
 1858 Fit       0.020048
 1859 Fit       0.020936
 1860 Fit       0.022651
 1861 Fit       0.022651
 1862 Fit       0.020936
 1863 Fit       0.020048
 1864 Fit       0.020182
 1865 Fit       0.020684
 1866 Fit       0.020929
 1867 Fit       0.020684
 1868 Fit       0.020182
 1869 Fit       0.021084
 1870 Fit       0.021899
 1871 Fit       0.021899
 1872 Fit       0.021084
 1873 Fit       0.021070
 1874 Fit       0.021070
 1875 Fit       0.021430
 -----------------------------------------------------------------
 Leave Link  602 at Tue Sep 30 16:58:55 2025, MaxMem=  4294967296 cpu:               1.0 elap:               0.1
 (Enter /software/sse/easybuild/prefix/software/Gaussian/16.C.01-avx2-nsc1/g16/l701.exe)
 ... and contract with generalized density number  0.
 Compute integral first derivatives.
 Leave Link  701 at Tue Sep 30 16:58:55 2025, MaxMem=  4294967296 cpu:               1.8 elap:               0.1
 (Enter /software/sse/easybuild/prefix/software/Gaussian/16.C.01-avx2-nsc1/g16/l702.exe)
 L702 exits ... SP integral derivatives will be done elsewhere.
 Leave Link  702 at Tue Sep 30 16:58:55 2025, MaxMem=  4294967296 cpu:               0.3 elap:               0.0
 (Enter /software/sse/easybuild/prefix/software/Gaussian/16.C.01-avx2-nsc1/g16/l703.exe)
 Integral derivatives from FoFJK, PRISM(SPDF).
 Compute integral first derivatives, UseDBF=F ICtDFT=           0.
 Calling FoFJK, ICntrl=      2127 FMM=F ISym2X=1 I1Cent= 0 IOpClX= 0 NMat=1 NMatS=1 NMatT=0.
 FoFJK:  IHMeth= 1 ICntrl=    2127 DoSepK=F KAlg= 0 I1Cent=           0 FoldK=F
 IRaf=         0 NMat=       1 IRICut=       1 DoRegI=T DoRafI=F ISym2E= 1 IDoP0=0 IntGTp=1.
 FoFCou: FMM=F IPFlag=           0 FMFlag=      100000 FMFlg1=         800
         NFxFlg=           0 DoJE=F BraDBF=F KetDBF=F FulRan=T
         wScrn=  0.000000 ICntrl=      2127 IOpCl=  0 I1Cent=           0 NGrid=           0
         NMat0=    1 NMatS0=      1 NMatT0=    0 NMatD0=    1 NMtDS0=    0 NMtDT0=    0
 Petite list used in FoFCou.
 Leave Link  703 at Tue Sep 30 16:58:56 2025, MaxMem=  4294967296 cpu:               5.9 elap:               0.4
 (Enter /software/sse/easybuild/prefix/software/Gaussian/16.C.01-avx2-nsc1/g16/l716.exe)
 Dipole        =-4.29686983D-17 0.00000000D+00-7.63017443D-01
 ***** Axes restored to original set *****
 -------------------------------------------------------------------
 Center     Atomic                   Forces (Hartrees/Bohr)
 Number     Number              X              Y              Z
 -------------------------------------------------------------------
      1        8          -0.000000000    0.000000000    0.000003191
      2        1           0.000000000    0.000001229   -0.000001595
      3        1           0.000000000   -0.000001229   -0.000001595
 -------------------------------------------------------------------
 Cartesian Forces:  Max     0.000003191 RMS     0.000001426
 Leave Link  716 at Tue Sep 30 16:58:56 2025, MaxMem=  4294967296 cpu:               0.4 elap:               0.0
 (Enter /software/sse/easybuild/prefix/software/Gaussian/16.C.01-avx2-nsc1/g16/l103.exe)

 GradGradGradGradGradGradGradGradGradGradGradGradGradGradGradGradGradGrad
 Berny optimization.
 FormGI is forming the generalized inverse of G from B-inverse, IUseBI=4.
 Internal  Forces:  Max     0.000001940 RMS     0.000001678
 Search for a local minimum.
 Step number   1 out of a maximum of   20
 All quantities printed in internal units (Hartrees-Bohrs-Radians)
 RMS Force = .16783D-05 SwitMx=.10000D-02 MixMth= 2
 Mixed Optimization -- En-DIIS/RFO-DIIS
 Second derivative matrix not updated -- first step.
 The second derivative matrix:
                          R1        R2        A1
           R1           0.59764
           R2           0.00000   0.59764
           A1           0.00000   0.00000   0.16000
 ITU=  0
     Eigenvalues ---    0.16000   0.59764   0.59764
 RFO step:  Lambda= 0.00000000D+00 EMin= 1.60000000D-01
 Linear search not attempted -- first point.
 Iteration  1 RMS(Cart)=  0.00000297 RMS(Int)=  0.00000000
 Iteration  2 RMS(Cart)=  0.00000000 RMS(Int)=  0.00000000
 ITry= 1 IFail=0 DXMaxC= 4.14D-06 DCOld= 1.00D+10 DXMaxT= 3.00D-01 DXLimC= 3.00D+00 Rises=F
 ClnCor:  largest displacement from symmetrization is 3.14D-16 for atom     3.
 Variable       Old X    -DE/DX   Delta X   Delta X   Delta X     New X
                                 (Linear)    (Quad)   (Total)
    R1        1.77827   0.00000   0.00000   0.00000   0.00000   1.77828
    R2        1.77827   0.00000   0.00000   0.00000   0.00000   1.77828
    A1        1.85556  -0.00000   0.00000  -0.00001  -0.00001   1.85555
         Item               Value     Threshold  Converged?
 Maximum Force            0.000002     0.000015     YES
 RMS     Force            0.000002     0.000010     YES
 Maximum Displacement     0.000004     0.000060     YES
 RMS     Displacement     0.000003     0.000040     YES
 Predicted change in Energy=-9.179993D-12
 Optimization completed.
    -- Stationary point found.
                           ----------------------------
                           !   Optimized Parameters   !
                           ! (Angstroms and Degrees)  !
 --------------------------                            --------------------------
 ! Name  Definition              Value          Derivative Info.                !
 --------------------------------------------------------------------------------
 ! R1    R(1,2)                  0.941          -DE/DX =    0.0                 !
 ! R2    R(1,3)                  0.941          -DE/DX =    0.0                 !
 ! A1    A(2,1,3)              106.3155         -DE/DX =    0.0                 !
 --------------------------------------------------------------------------------
 Lowest energy point so far.  Saving SCF results.
 Largest change from initial coordinates is atom    0       0.000 Angstoms.
 GradGradGradGradGradGradGradGradGradGradGradGradGradGradGradGradGradGrad

 Leave Link  103 at Tue Sep 30 16:58:56 2025, MaxMem=  4294967296 cpu:               0.4 elap:               0.0
 (Enter /software/sse/easybuild/prefix/software/Gaussian/16.C.01-avx2-nsc1/g16/l202.exe)
                          Input orientation:                          
 ---------------------------------------------------------------------
 Center     Atomic      Atomic             Coordinates (Angstroms)
 Number     Number       Type             X           Y           Z
 ---------------------------------------------------------------------
      1          8           0        0.000000    0.000000    0.112850
      2          1           0        0.000000    0.753090   -0.451400
      3          1           0       -0.000000   -0.753090   -0.451400
 ---------------------------------------------------------------------
                    Distance matrix (angstroms):
                    1          2          3
     1  O    0.000000
     2  H    0.941022   0.000000
     3  H    0.941022   1.506180   0.000000
 Stoichiometry    H2O
 Framework group  C2V[C2(O),SGV(H2)]
 Deg. of freedom     2
 Full point group                 C2V     NOp   4
 RotChk:  IX=0 Diff= 5.95D-16
 Largest Abelian subgroup         C2V     NOp   4
 Largest concise Abelian subgroup C2      NOp   2
                         Standard orientation:                         
 ---------------------------------------------------------------------
 Center     Atomic      Atomic             Coordinates (Angstroms)
 Number     Number       Type             X           Y           Z
 ---------------------------------------------------------------------
      1          8           0        0.000000    0.000000    0.112850
      2          1           0        0.000000    0.753090   -0.451400
      3          1           0       -0.000000   -0.753090   -0.451400
 ---------------------------------------------------------------------
 Rotational constants (GHZ):         886.7563942         442.0875649         295.0112933
 Leave Link  202 at Tue Sep 30 16:58:56 2025, MaxMem=  4294967296 cpu:               0.1 elap:               0.0
 (Enter /software/sse/easybuild/prefix/software/Gaussian/16.C.01-avx2-nsc1/g16/l9999.exe)

 Test job not archived.
 1\1\NSC-N1095\FOpt\RHF\Aug-CC-pVTZ\H2O1\X_DAVVA\30-Sep-2025\0\\#P HF/a
 ug-cc-pvtz Opt=tight Pop=(MK,Hirshfeld) iop(6/33=2) iop(6/42=6) maxdis
 k=128GB\\water\\0,1\O,0.,0.,0.11285\H,0.,0.75309,-0.4514\H,0.,-0.75309
 ,-0.4514\\Version=ES64L-G16RevC.01\State=1-A1\HF=-76.0612031\RMSD=3.18
 1e-09\RMSF=1.426e-06\Dipole=0.,0.,-0.7630174\Quadrupole=-1.1284164,1.3
 382559,-0.2098395,0.,0.,0.\PG=C02V [C2(O1),SGV(H2)]\\@


 YOU KNOW YOU'RE A TEACHER WHEN YOU SAY 2, WRITE 3, AND MEAN 4.
 -- RONALD ANSTROM, HIGH SCHOOL TEACHER, UNDERWOOD, N.D. 1974
 Job cpu time:       0 days  0 hours  0 minutes 28.9 seconds.
 Elapsed time:       0 days  0 hours  0 minutes  2.3 seconds.
 File lengths (MBytes):  RWF=     10 Int=      0 D2E=      0 Chk=      8 Scr=      1
 Normal termination of Gaussian 16 at Tue Sep 30 16:58:56 2025.
