 Entering Gaussian System, Link 0=/software/sse/easybuild/prefix/software/Gaussian/16.C.01-avx2-nsc1/g16/g16.orig
 Input=propanoate.wrap
 Output=propanoate.log
 Initial command:
 /software/sse/easybuild/prefix/software/Gaussian/16.C.01-avx2-nsc1/g16/l1.exe "/scratch/local/Gau-1116519.inp" -scrdir="/scratch/local/"
 Entering Link 1 = /software/sse/easybuild/prefix/software/Gaussian/16.C.01-avx2-nsc1/g16/l1.exe PID=   1116520.
  
 Copyright (c) 1988-2019, Gaussian, Inc.  All Rights Reserved.
  
 This is part of the Gaussian(R) 16 program.  It is based on
 the Gaussian(R) 09 system (copyright 2009, Gaussian, Inc.),
 the Gaussian(R) 03 system (copyright 2003, Gaussian, Inc.),
 the Gaussian(R) 98 system (copyright 1998, Gaussian, Inc.),
 the Gaussian(R) 94 system (copyright 1995, Gaussian, Inc.),
 the Gaussian 92(TM) system (copyright 1992, Gaussian, Inc.),
 the Gaussian 90(TM) system (copyright 1990, Gaussian, Inc.),
 the Gaussian 88(TM) system (copyright 1988, Gaussian, Inc.),
 the Gaussian 86(TM) system (copyright 1986, Carnegie Mellon
 University), and the Gaussian 82(TM) system (copyright 1983,
 Carnegie Mellon University). Gaussian is a federally registered
 trademark of Gaussian, Inc.
  
 This software contains proprietary and confidential information,
 including trade secrets, belonging to Gaussian, Inc.
  
 This software is provided under written license and may be
 used, copied, transmitted, or stored only in accord with that
 written license.
  
 The following legend is applicable only to US Government
 contracts under FAR:
  
                    RESTRICTED RIGHTS LEGEND
  
 Use, reproduction and disclosure by the US Government is
 subject to restrictions as set forth in subparagraphs (a)
 and (c) of the Commercial Computer Software - Restricted
 Rights clause in FAR 52.227-19.
  
 Gaussian, Inc.
 340 Quinnipiac St., Bldg. 40, Wallingford CT 06492
  
  
 ---------------------------------------------------------------
 Warning -- This program may not be used in any manner that
 competes with the business of Gaussian, Inc. or will provide
 assistance to any competitor of Gaussian, Inc.  The licensee
 of this program is prohibited from giving any competitor of
 Gaussian, Inc. access to this program.  By using this program,
 the user acknowledges that Gaussian, Inc. is engaged in the
 business of creating and licensing software in the field of
 computational chemistry and represents and warrants to the
 licensee that it is not a competitor of Gaussian, Inc. and that
 it will not use this program in any manner prohibited above.
 ---------------------------------------------------------------
  

 Cite this work as:
 Gaussian 16, Revision C.01,
 M. J. Frisch, G. W. Trucks, H. B. Schlegel, G. E. Scuseria, 
 M. A. Robb, J. R. Cheeseman, G. Scalmani, V. Barone, 
 G. A. Petersson, H. Nakatsuji, X. Li, M. Caricato, A. V. Marenich, 
 J. Bloino, B. G. Janesko, R. Gomperts, B. Mennucci, H. P. Hratchian, 
 J. V. Ortiz, A. F. Izmaylov, J. L. Sonnenberg, D. Williams-Young, 
 F. Ding, F. Lipparini, F. Egidi, J. Goings, B. Peng, A. Petrone, 
 T. Henderson, D. Ranasinghe, V. G. Zakrzewski, J. Gao, N. Rega, 
 G. Zheng, W. Liang, M. Hada, M. Ehara, K. Toyota, R. Fukuda, 
 J. Hasegawa, M. Ishida, T. Nakajima, Y. Honda, O. Kitao, H. Nakai, 
 T. Vreven, K. Throssell, J. A. Montgomery, Jr., J. E. Peralta, 
 F. Ogliaro, M. J. Bearpark, J. J. Heyd, E. N. Brothers, K. N. Kudin, 
 V. N. Staroverov, T. A. Keith, R. Kobayashi, J. Normand, 
 K. Raghavachari, A. P. Rendell, J. C. Burant, S. S. Iyengar, 
 J. Tomasi, M. Cossi, J. M. Millam, M. Klene, C. Adamo, R. Cammi, 
 J. W. Ochterski, R. L. Martin, K. Morokuma, O. Farkas, 
 J. B. Foresman, and D. J. Fox, Gaussian, Inc., Wallingford CT, 2019.
 
 ******************************************
 Gaussian 16:  ES64L-G16RevC.01  3-Jul-2019
                30-Sep-2025 
 ******************************************
 %mem=12000MB
 %nprocshared=16
 Will use up to   16 processors via shared memory.
 %mem=32Gb
 %chk=propanoate.chk
 ----------------------------------------------------------------------
 #P HF/aug-cc-pvtz Opt=tight Pop=(MK,Hirshfeld) iop(6/33=2) iop(6/42=6)
  maxdisk=128GB
 ----------------------------------------------------------------------
 1/7=10,18=20,19=15,38=1/1,3;
 2/9=110,12=2,17=6,18=5,40=1/2;
 3/5=16,6=1,7=10,11=9,25=1,30=1,71=1/1,2,3;
 4//1;
 5/5=2,38=5/2;
 6/7=2,8=2,9=2,10=2,15=8,20=1,28=1,33=2,42=6,79=1/1,2;
 7//1,2,3,16;
 1/7=10,18=20,19=15/3(2);
 2/9=110/2;
 99//99;
 2/9=110/2;
 3/5=16,6=1,7=10,11=9,25=1,30=1,71=1/1,2,3;
 4/5=5,16=3,69=1/1;
 5/5=2,38=5/2;
 7//1,2,3,16;
 1/7=10,18=20,19=15/3(-5);
 2/9=110/2;
 6/7=2,8=2,9=2,10=2,15=8,19=2,20=1,28=1,33=2,42=6,79=1/1,2;
 99/9=1/99;
 Leave Link    1 at Tue Sep 30 16:58:49 2025, MaxMem=  4294967296 cpu:               0.9 elap:               0.1
 (Enter /software/sse/easybuild/prefix/software/Gaussian/16.C.01-avx2-nsc1/g16/l101.exe)
 ----------
 propanoate
 ----------
 Symbolic Z-matrix:
 Charge = -1 Multiplicity = 1
 O                    -0.78755   1.65805   0. 
 O                     1.23094   0.73195   0. 
 C                    -0.67599  -0.68579   0. 
 C                     0.27034  -1.87896   0. 
 C                     0.        0.70953   0. 
 H                    -1.33153  -0.72276   0.86615 
 H                    -1.33153  -0.72276  -0.86615 
 H                     0.91531  -1.86188  -0.87027 
 H                     0.91531  -1.86188   0.87027 
 H                    -0.28073  -2.81935   0. 
 
 ITRead=  0  0  0  0  0  0  0  0  0  0
 MicOpt= -1 -1 -1 -1 -1 -1 -1 -1 -1 -1
 NAtoms=     10 NQM=       10 NQMF=       0 NMMI=      0 NMMIF=      0
                NMic=       0 NMicF=      0.
                    Isotopes and Nuclear Properties:
 (Nuclear quadrupole moments (NQMom) in fm**2, nuclear magnetic moments (NMagM)
  in nuclear magnetons)

  Atom         1           2           3           4           5           6           7           8           9          10
 IAtWgt=          16          16          12          12          12           1           1           1           1           1
 AtmWgt=  15.9949146  15.9949146  12.0000000  12.0000000  12.0000000   1.0078250   1.0078250   1.0078250   1.0078250   1.0078250
 NucSpn=           0           0           0           0           0           1           1           1           1           1
 AtZEff=  -0.0000000  -0.0000000  -0.0000000  -0.0000000  -0.0000000  -0.0000000  -0.0000000  -0.0000000  -0.0000000  -0.0000000
 NQMom=    0.0000000   0.0000000   0.0000000   0.0000000   0.0000000   0.0000000   0.0000000   0.0000000   0.0000000   0.0000000
 NMagM=    0.0000000   0.0000000   0.0000000   0.0000000   0.0000000   2.7928460   2.7928460   2.7928460   2.7928460   2.7928460
 AtZNuc=   8.0000000   8.0000000   6.0000000   6.0000000   6.0000000   1.0000000   1.0000000   1.0000000   1.0000000   1.0000000
 Leave Link  101 at Tue Sep 30 16:58:50 2025, MaxMem=  4294967296 cpu:               5.1 elap:               0.3
 (Enter /software/sse/easybuild/prefix/software/Gaussian/16.C.01-avx2-nsc1/g16/l103.exe)

 GradGradGradGradGradGradGradGradGradGradGradGradGradGradGradGradGradGrad
 Berny optimization.
 Initialization pass.
                           ----------------------------
                           !    Initial Parameters    !
                           ! (Angstroms and Degrees)  !
 --------------------------                            --------------------------
 ! Name  Definition              Value          Derivative Info.                !
 --------------------------------------------------------------------------------
 ! R1    R(1,5)                  1.2329         estimate D2E/DX2                !
 ! R2    R(2,5)                  1.2311         estimate D2E/DX2                !
 ! R3    R(3,4)                  1.5229         estimate D2E/DX2                !
 ! R4    R(3,5)                  1.5504         estimate D2E/DX2                !
 ! R5    R(3,6)                  1.0869         estimate D2E/DX2                !
 ! R6    R(3,7)                  1.0869         estimate D2E/DX2                !
 ! R7    R(4,8)                  1.0834         estimate D2E/DX2                !
 ! R8    R(4,9)                  1.0834         estimate D2E/DX2                !
 ! R9    R(4,10)                 1.09           estimate D2E/DX2                !
 ! A1    A(4,3,5)              115.7325         estimate D2E/DX2                !
 ! A2    A(4,3,6)              110.3737         estimate D2E/DX2                !
 ! A3    A(4,3,7)              110.3737         estimate D2E/DX2                !
 ! A4    A(5,3,6)              107.0723         estimate D2E/DX2                !
 ! A5    A(5,3,7)              107.0723         estimate D2E/DX2                !
 ! A6    A(6,3,7)              105.6724         estimate D2E/DX2                !
 ! A7    A(3,4,8)              110.9528         estimate D2E/DX2                !
 ! A8    A(3,4,9)              110.9528         estimate D2E/DX2                !
 ! A9    A(3,4,10)             111.2109         estimate D2E/DX2                !
 ! A10   A(8,4,9)              106.8954         estimate D2E/DX2                !
 ! A11   A(8,4,10)             108.3368         estimate D2E/DX2                !
 ! A12   A(9,4,10)             108.3368         estimate D2E/DX2                !
 ! A13   A(1,5,2)              128.6592         estimate D2E/DX2                !
 ! A14   A(1,5,3)              114.4486         estimate D2E/DX2                !
 ! A15   A(2,5,3)              116.8922         estimate D2E/DX2                !
 ! D1    D(5,3,4,8)            -59.3383         estimate D2E/DX2                !
 ! D2    D(5,3,4,9)             59.3383         estimate D2E/DX2                !
 ! D3    D(5,3,4,10)           180.0            estimate D2E/DX2                !
 ! D4    D(6,3,4,8)            178.8833         estimate D2E/DX2                !
 ! D5    D(6,3,4,9)            -62.44           estimate D2E/DX2                !
 ! D6    D(6,3,4,10)            58.2217         estimate D2E/DX2                !
 ! D7    D(7,3,4,8)             62.44           estimate D2E/DX2                !
 ! D8    D(7,3,4,9)           -178.8833         estimate D2E/DX2                !
 ! D9    D(7,3,4,10)           -58.2217         estimate D2E/DX2                !
 ! D10   D(4,3,5,1)            180.0            estimate D2E/DX2                !
 ! D11   D(4,3,5,2)              0.0            estimate D2E/DX2                !
 ! D12   D(6,3,5,1)            -56.4751         estimate D2E/DX2                !
 ! D13   D(6,3,5,2)            123.5249         estimate D2E/DX2                !
 ! D14   D(7,3,5,1)             56.4751         estimate D2E/DX2                !
 ! D15   D(7,3,5,2)           -123.5249         estimate D2E/DX2                !
 --------------------------------------------------------------------------------
 Trust Radius=3.00D-01 FncErr=1.00D-07 GrdErr=1.00D-07 EigMax=2.50D+02 EigMin=1.00D-04
 Number of steps in this run=     49 maximum allowed number of steps=    100.
 GradGradGradGradGradGradGradGradGradGradGradGradGradGradGradGradGradGrad

 Leave Link  103 at Tue Sep 30 16:58:50 2025, MaxMem=  4294967296 cpu:               0.2 elap:               0.0
 (Enter /software/sse/easybuild/prefix/software/Gaussian/16.C.01-avx2-nsc1/g16/l202.exe)
                          Input orientation:                          
 ---------------------------------------------------------------------
 Center     Atomic      Atomic             Coordinates (Angstroms)
 Number     Number       Type             X           Y           Z
 ---------------------------------------------------------------------
      1          8           0       -0.787550    1.658050    0.000000
      2          8           0        1.230940    0.731950    0.000000
      3          6           0       -0.675990   -0.685790    0.000000
      4          6           0        0.270340   -1.878960    0.000000
      5          6           0        0.000000    0.709530    0.000000
      6          1           0       -1.331530   -0.722760    0.866150
      7          1           0       -1.331530   -0.722760   -0.866150
      8          1           0        0.915310   -1.861880   -0.870270
      9          1           0        0.915310   -1.861880    0.870270
     10          1           0       -0.280730   -2.819350    0.000000
 ---------------------------------------------------------------------
                    Distance matrix (angstroms):
                    1          2          3          4          5
     1  O    0.000000
     2  O    2.220802   0.000000
     3  C    2.346493   2.376209   0.000000
     4  C    3.691825   2.782014   1.522890   0.000000
     5  C    1.232852   1.231144   1.550445   2.602569   0.000000
     6  H    2.591213   3.071262   1.086883   2.157082   2.138841
     7  H    2.591213   3.071262   1.086883   2.157082   2.138841
     8  H    4.005872   2.754078   2.161664   1.083350   2.864841
     9  H    4.005872   2.754078   2.161664   1.083350   2.864841
    10  H    4.505993   3.859647   2.169864   1.089959   3.540029
                    6          7          8          9         10
     6  H    0.000000
     7  H    1.732300   0.000000
     8  H    3.059581   2.519107   0.000000
     9  H    2.519107   3.059581   1.740540   0.000000
    10  H    2.500017   2.500017   1.761996   1.761996   0.000000
 Stoichiometry    C3H5O2(1-)
 Framework group  CS[SG(C3HO2),X(H4)]
 Deg. of freedom    15
 Full point group                 CS      NOp   2
 Largest Abelian subgroup         CS      NOp   2
 Largest concise Abelian subgroup CS      NOp   2
                         Standard orientation:                         
 ---------------------------------------------------------------------
 Center     Atomic      Atomic             Coordinates (Angstroms)
 Number     Number       Type             X           Y           Z
 ---------------------------------------------------------------------
      1          8           0       -0.787548    1.658050    0.000000
      2          8           0        1.230940    0.731946    0.000000
      3          6           0       -0.675993   -0.685790    0.000000
      4          6           0        0.270335   -1.878962    0.000000
      5          6           0       -0.000000    0.709529    0.000000
      6          1           0       -1.331533   -0.722759    0.866150
      7          1           0       -1.331533   -0.722759   -0.866150
      8          1           0        0.915305   -1.861883   -0.870270
      9          1           0        0.915305   -1.861883    0.870270
     10          1           0       -0.280736   -2.819351    0.000000
 ---------------------------------------------------------------------
 Rotational constants (GHZ):          10.5105441           4.0230018           3.0148862
 Leave Link  202 at Tue Sep 30 16:58:50 2025, MaxMem=  4294967296 cpu:               0.1 elap:               0.0
 (Enter /software/sse/easybuild/prefix/software/Gaussian/16.C.01-avx2-nsc1/g16/l301.exe)
 Standard basis: Aug-CC-pVTZ (5D, 7F)
 Ernie: Thresh=  0.10000D-02 Tol=  0.10000D-05 Strict=F.
 Ernie:  15 primitive shells out of 205 were deleted.
 There are   253 symmetry adapted cartesian basis functions of A'  symmetry.
 There are   147 symmetry adapted cartesian basis functions of A"  symmetry.
 There are   212 symmetry adapted basis functions of A'  symmetry.
 There are   133 symmetry adapted basis functions of A"  symmetry.
   345 basis functions,   495 primitive gaussians,   400 cartesian basis functions
    20 alpha electrons       20 beta electrons
       nuclear repulsion energy       169.8181273989 Hartrees.
 IExCor=    0 DFT=F Ex=HF Corr=None ExCW=0 ScaHFX=  1.000000
 ScaDFX=  1.000000  1.000000  1.000000  1.000000 ScalE2=  1.000000  1.000000
 IRadAn=      5 IRanWt=     -1 IRanGd=            0 ICorTp=0 IEmpDi=  4
 NAtoms=   10 NActive=   10 NUniq=    8 SFac= 1.56D+00 NAtFMM=   60 NAOKFM=F Big=F
 Integral buffers will be    131072 words long.
 Raffenetti 1 integral format.
 Two-electron integral symmetry is turned on.
 Leave Link  301 at Tue Sep 30 16:58:51 2025, MaxMem=  4294967296 cpu:               0.8 elap:               0.1
 (Enter /software/sse/easybuild/prefix/software/Gaussian/16.C.01-avx2-nsc1/g16/l302.exe)
 NPDir=0 NMtPBC=     1 NCelOv=     1 NCel=       1 NClECP=     1 NCelD=      1
         NCelK=      1 NCelE2=     1 NClLst=     1 CellRange=     0.0.
 One-electron integrals computed using PRISM.
 One-electron integral symmetry used in STVInt
 NBasis=   345 RedAO= T EigKep=  2.08D-05  NBF=   212   133
 NBsUse=   345 1.00D-06 EigRej= -1.00D+00 NBFU=   212   133
 Leave Link  302 at Tue Sep 30 16:58:51 2025, MaxMem=  4294967296 cpu:               2.8 elap:               0.2
 (Enter /software/sse/easybuild/prefix/software/Gaussian/16.C.01-avx2-nsc1/g16/l303.exe)
 DipDrv:  MaxL=1.
 Leave Link  303 at Tue Sep 30 16:58:52 2025, MaxMem=  4294967296 cpu:               0.6 elap:               0.1
 (Enter /software/sse/easybuild/prefix/software/Gaussian/16.C.01-avx2-nsc1/g16/l401.exe)
 ExpMin= 2.53D-02 ExpMax= 1.53D+04 ExpMxC= 5.22D+02 IAcc=3 IRadAn=         5 AccDes= 0.00D+00
 Harris functional with IExCor=  205 and IRadAn=       5 diagonalized for initial guess.
 HarFok:  IExCor=  205 AccDes= 0.00D+00 IRadAn=         5 IDoV= 1 UseB2=F ITyADJ=14
 ICtDFT=  3500011 ScaDFX=  1.000000  1.000000  1.000000  1.000000
 FoFCou: FMM=F IPFlag=           0 FMFlag=      100000 FMFlg1=           0
         NFxFlg=           0 DoJE=T BraDBF=F KetDBF=T FulRan=T
         wScrn=  0.000000 ICntrl=       500 IOpCl=  0 I1Cent=   200000004 NGrid=           0
         NMat0=    1 NMatS0=      1 NMatT0=    0 NMatD0=    1 NMtDS0=    0 NMtDT0=    0
 Petite list used in FoFCou.
 Harris En= -266.919707796266    
 JPrj=0 DoOrth=F DoCkMO=F.
 Initial guess orbital symmetries:
       Occupied  (A') (A') (A') (A') (A') (A') (A') (A') (A') (A')
                 (A') (A") (A') (A') (A") (A') (A") (A") (A') (A')
       Virtual   (A") (A') (A') (A") (A') (A') (A") (A') (A') (A')
                 (A") (A') (A") (A') (A') (A') (A") (A') (A") (A')
                 (A") (A') (A') (A") (A') (A') (A') (A") (A') (A')
                 (A') (A') (A") (A') (A") (A") (A') (A') (A") (A')
                 (A") (A') (A') (A') (A") (A") (A') (A') (A") (A')
                 (A') (A') (A") (A") (A') (A') (A') (A") (A') (A')
                 (A") (A') (A") (A') (A') (A') (A") (A') (A") (A')
                 (A') (A') (A') (A") (A") (A") (A') (A') (A") (A')
                 (A') (A") (A") (A') (A") (A') (A") (A') (A") (A')
                 (A') (A') (A") (A") (A') (A') (A") (A') (A") (A')
                 (A') (A") (A') (A') (A") (A') (A') (A") (A") (A')
                 (A') (A") (A') (A') (A") (A") (A") (A') (A') (A')
                 (A") (A") (A') (A') (A") (A') (A') (A') (A") (A')
                 (A') (A") (A") (A') (A') (A") (A") (A') (A") (A')
                 (A') (A") (A') (A') (A') (A") (A') (A") (A') (A")
                 (A') (A') (A") (A') (A") (A') (A') (A') (A") (A")
                 (A") (A') (A') (A") (A') (A') (A") (A') (A") (A')
                 (A') (A") (A') (A") (A") (A') (A') (A') (A") (A')
                 (A') (A") (A") (A') (A") (A') (A') (A') (A') (A")
                 (A') (A") (A') (A') (A') (A") (A") (A') (A') (A')
                 (A") (A') (A") (A') (A") (A') (A') (A") (A") (A')
                 (A') (A") (A') (A') (A") (A") (A') (A') (A") (A')
                 (A") (A') (A') (A") (A") (A') (A") (A") (A') (A")
                 (A') (A') (A") (A') (A") (A') (A") (A') (A') (A")
                 (A") (A") (A') (A') (A") (A') (A') (A') (A') (A")
                 (A') (A') (A') (A') (A") (A') (A") (A') (A') (A")
                 (A") (A') (A') (A') (A") (A') (A') (A") (A") (A')
                 (A") (A') (A") (A") (A') (A') (A") (A') (A") (A')
                 (A') (A") (A') (A') (A") (A') (A") (A') (A') (A")
                 (A') (A') (A') (A") (A') (A") (A') (A") (A') (A")
                 (A') (A") (A") (A') (A') (A") (A') (A") (A") (A')
                 (A") (A') (A') (A") (A") (A') (A') (A') (A') (A')
                 (A') (A') (A') (A') (A')
 The electronic state of the initial guess is 1-A'.
 Leave Link  401 at Tue Sep 30 16:58:53 2025, MaxMem=  4294967296 cpu:               5.3 elap:               0.4
 (Enter /software/sse/easybuild/prefix/software/Gaussian/16.C.01-avx2-nsc1/g16/l502.exe)
 Keep R1 ints in memory in symmetry-blocked form, NReq=2674621453.
 FoFCou: FMM=F IPFlag=           0 FMFlag=           0 FMFlg1=           0
         NFxFlg=           0 DoJE=F BraDBF=F KetDBF=F FulRan=T
         wScrn=  0.000000 ICntrl=       600 IOpCl=  0 I1Cent=           0 NGrid=           0
         NMat0=    1 NMatS0=  59685 NMatT0=    0 NMatD0=    1 NMtDS0=    0 NMtDT0=    0
 Petite list used in FoFCou.
 Closed shell SCF:
 Using DIIS extrapolation, IDIIS=  1040.
 NGot=  4294967296 LenX=  3401197552 LenY=  3401037111
 Requested convergence on RMS density matrix=1.00D-08 within 128 cycles.
 Requested convergence on MAX density matrix=1.00D-06.
 Requested convergence on             energy=1.00D-06.
 No special actions if energy rises.

 Cycle   1  Pass 1  IDiag  1:
 E= -266.020035549188    
 DIIS: error= 3.69D-02 at cycle   1 NSaved=   1.
 NSaved= 1 IEnMin= 1 EnMin= -266.020035549188     IErMin= 1 ErrMin= 3.69D-02
 ErrMax= 3.69D-02  0.00D+00 EMaxC= 1.00D-01 BMatC= 6.74D-01 BMatP= 6.74D-01
 IDIUse=3 WtCom= 6.31D-01 WtEn= 3.69D-01
 Coeff-Com:  0.100D+01
 Coeff-En:   0.100D+01
 Coeff:      0.100D+01
 Gap=     0.279 Goal=   None    Shift=    0.000
 GapD=    0.279 DampG=1.000 DampE=0.500 DampFc=0.5000 IDamp=-1.
 Damping current iteration by 5.00D-01
 RMSDP=2.20D-03 MaxDP=7.42D-02              OVMax= 1.50D-01

 Cycle   2  Pass 1  IDiag  1:
 E= -266.210882316481     Delta-E=       -0.190846767293 Rises=F Damp=T
 DIIS: error= 1.18D-02 at cycle   2 NSaved=   2.
 NSaved= 2 IEnMin= 2 EnMin= -266.210882316481     IErMin= 2 ErrMin= 1.18D-02
 ErrMax= 1.18D-02  0.00D+00 EMaxC= 1.00D-01 BMatC= 1.21D-01 BMatP= 6.74D-01
 IDIUse=3 WtCom= 8.82D-01 WtEn= 1.18D-01
 Coeff-Com: -0.509D+00 0.151D+01
 Coeff-En:   0.000D+00 0.100D+01
 Coeff:     -0.449D+00 0.145D+01
 Gap=     0.317 Goal=   None    Shift=    0.000
 RMSDP=9.42D-04 MaxDP=3.78D-02 DE=-1.91D-01 OVMax= 6.47D-02

 Cycle   3  Pass 1  IDiag  1:
 E= -266.376481736502     Delta-E=       -0.165599420021 Rises=F Damp=F
 DIIS: error= 4.19D-03 at cycle   3 NSaved=   3.
 NSaved= 3 IEnMin= 3 EnMin= -266.376481736502     IErMin= 3 ErrMin= 4.19D-03
 ErrMax= 4.19D-03  0.00D+00 EMaxC= 1.00D-01 BMatC= 3.85D-03 BMatP= 1.21D-01
 IDIUse=3 WtCom= 9.58D-01 WtEn= 4.19D-02
 Coeff-Com: -0.126D+00 0.213D+00 0.913D+00
 Coeff-En:   0.000D+00 0.000D+00 0.100D+01
 Coeff:     -0.121D+00 0.205D+00 0.917D+00
 Gap=     0.306 Goal=   None    Shift=    0.000
 RMSDP=1.56D-04 MaxDP=7.59D-03 DE=-1.66D-01 OVMax= 1.19D-02

 Cycle   4  Pass 1  IDiag  1:
 E= -266.378964703896     Delta-E=       -0.002482967394 Rises=F Damp=F
 DIIS: error= 1.37D-03 at cycle   4 NSaved=   4.
 NSaved= 4 IEnMin= 4 EnMin= -266.378964703896     IErMin= 4 ErrMin= 1.37D-03
 ErrMax= 1.37D-03  0.00D+00 EMaxC= 1.00D-01 BMatC= 2.84D-04 BMatP= 3.85D-03
 IDIUse=3 WtCom= 9.86D-01 WtEn= 1.37D-02
 Coeff-Com: -0.226D-01 0.261D-01 0.256D+00 0.740D+00
 Coeff-En:   0.000D+00 0.000D+00 0.000D+00 0.100D+01
 Coeff:     -0.223D-01 0.258D-01 0.252D+00 0.744D+00
 Gap=     0.306 Goal=   None    Shift=    0.000
 RMSDP=4.95D-05 MaxDP=2.30D-03 DE=-2.48D-03 OVMax= 4.28D-03

 Cycle   5  Pass 1  IDiag  1:
 E= -266.379239932107     Delta-E=       -0.000275228211 Rises=F Damp=F
 DIIS: error= 2.56D-04 at cycle   5 NSaved=   5.
 NSaved= 5 IEnMin= 5 EnMin= -266.379239932107     IErMin= 5 ErrMin= 2.56D-04
 ErrMax= 2.56D-04  0.00D+00 EMaxC= 1.00D-01 BMatC= 2.26D-05 BMatP= 2.84D-04
 IDIUse=3 WtCom= 9.97D-01 WtEn= 2.56D-03
 Coeff-Com:  0.134D-01-0.219D-01-0.116D+00 0.561D-02 0.112D+01
 Coeff-En:   0.000D+00 0.000D+00 0.000D+00 0.000D+00 0.100D+01
 Coeff:      0.134D-01-0.219D-01-0.115D+00 0.560D-02 0.112D+01
 Gap=     0.307 Goal=   None    Shift=    0.000
 RMSDP=3.90D-05 MaxDP=2.14D-03 DE=-2.75D-04 OVMax= 2.26D-03

 Cycle   6  Pass 1  IDiag  1:
 E= -266.379277558557     Delta-E=       -0.000037626451 Rises=F Damp=F
 DIIS: error= 5.99D-05 at cycle   6 NSaved=   6.
 NSaved= 6 IEnMin= 6 EnMin= -266.379277558557     IErMin= 6 ErrMin= 5.99D-05
 ErrMax= 5.99D-05  0.00D+00 EMaxC= 1.00D-01 BMatC= 9.36D-07 BMatP= 2.26D-05
 IDIUse=1 WtCom= 1.00D+00 WtEn= 0.00D+00
 Coeff-Com:  0.263D-02-0.371D-02-0.258D-01-0.395D-01 0.670D-01 0.999D+00
 Coeff:      0.263D-02-0.371D-02-0.258D-01-0.395D-01 0.670D-01 0.999D+00
 Gap=     0.307 Goal=   None    Shift=    0.000
 RMSDP=8.42D-06 MaxDP=4.93D-04 DE=-3.76D-05 OVMax= 5.85D-04

 Cycle   7  Pass 1  IDiag  1:
 E= -266.379279312832     Delta-E=       -0.000001754275 Rises=F Damp=F
 DIIS: error= 2.21D-05 at cycle   7 NSaved=   7.
 NSaved= 7 IEnMin= 7 EnMin= -266.379279312832     IErMin= 7 ErrMin= 2.21D-05
 ErrMax= 2.21D-05  0.00D+00 EMaxC= 1.00D-01 BMatC= 1.66D-07 BMatP= 9.36D-07
 IDIUse=1 WtCom= 1.00D+00 WtEn= 0.00D+00
 Coeff-Com: -0.229D-03 0.552D-03 0.127D-02-0.109D-01-0.652D-01 0.304D+00
 Coeff-Com:  0.770D+00
 Coeff:     -0.229D-03 0.552D-03 0.127D-02-0.109D-01-0.652D-01 0.304D+00
 Coeff:      0.770D+00
 Gap=     0.307 Goal=   None    Shift=    0.000
 RMSDP=1.77D-06 MaxDP=8.19D-05 DE=-1.75D-06 OVMax= 1.62D-04

 Cycle   8  Pass 1  IDiag  1:
 E= -266.379279488479     Delta-E=       -0.000000175647 Rises=F Damp=F
 DIIS: error= 4.61D-06 at cycle   8 NSaved=   8.
 NSaved= 8 IEnMin= 8 EnMin= -266.379279488479     IErMin= 8 ErrMin= 4.61D-06
 ErrMax= 4.61D-06  0.00D+00 EMaxC= 1.00D-01 BMatC= 1.56D-08 BMatP= 1.66D-07
 IDIUse=1 WtCom= 1.00D+00 WtEn= 0.00D+00
 Coeff-Com: -0.430D-03 0.660D-03 0.384D-02 0.386D-02-0.198D-01-0.940D-01
 Coeff-Com:  0.134D+00 0.972D+00
 Coeff:     -0.430D-03 0.660D-03 0.384D-02 0.386D-02-0.198D-01-0.940D-01
 Coeff:      0.134D+00 0.972D+00
 Gap=     0.307 Goal=   None    Shift=    0.000
 RMSDP=8.34D-07 MaxDP=4.18D-05 DE=-1.76D-07 OVMax= 8.09D-05

 Cycle   9  Pass 1  IDiag  1:
 E= -266.379279511664     Delta-E=       -0.000000023185 Rises=F Damp=F
 DIIS: error= 1.04D-06 at cycle   9 NSaved=   9.
 NSaved= 9 IEnMin= 9 EnMin= -266.379279511664     IErMin= 9 ErrMin= 1.04D-06
 ErrMax= 1.04D-06  0.00D+00 EMaxC= 1.00D-01 BMatC= 7.36D-10 BMatP= 1.56D-08
 IDIUse=1 WtCom= 1.00D+00 WtEn= 0.00D+00
 Coeff-Com: -0.138D-04 0.105D-04 0.895D-04 0.895D-03 0.299D-02-0.235D-01
 Coeff-Com: -0.419D-01-0.403D-02 0.107D+01
 Coeff:     -0.138D-04 0.105D-04 0.895D-04 0.895D-03 0.299D-02-0.235D-01
 Coeff:     -0.419D-01-0.403D-02 0.107D+01
 Gap=     0.307 Goal=   None    Shift=    0.000
 RMSDP=2.56D-07 MaxDP=1.08D-05 DE=-2.32D-08 OVMax= 2.38D-05

 Cycle  10  Pass 1  IDiag  1:
 E= -266.379279513576     Delta-E=       -0.000000001912 Rises=F Damp=F
 DIIS: error= 4.69D-07 at cycle  10 NSaved=  10.
 NSaved=10 IEnMin=10 EnMin= -266.379279513576     IErMin=10 ErrMin= 4.69D-07
 ErrMax= 4.69D-07  0.00D+00 EMaxC= 1.00D-01 BMatC= 1.03D-10 BMatP= 7.36D-10
 IDIUse=1 WtCom= 1.00D+00 WtEn= 0.00D+00
 Coeff-Com:  0.353D-04-0.542D-04-0.350D-03-0.305D-03 0.175D-02 0.860D-02
 Coeff-Com: -0.114D-01-0.110D+00 0.643D-01 0.105D+01
 Coeff:      0.353D-04-0.542D-04-0.350D-03-0.305D-03 0.175D-02 0.860D-02
 Coeff:     -0.114D-01-0.110D+00 0.643D-01 0.105D+01
 Gap=     0.307 Goal=   None    Shift=    0.000
 RMSDP=8.19D-08 MaxDP=3.80D-06 DE=-1.91D-09 OVMax= 7.25D-06

 Cycle  11  Pass 1  IDiag  1:
 E= -266.379279513824     Delta-E=       -0.000000000248 Rises=F Damp=F
 DIIS: error= 1.50D-07 at cycle  11 NSaved=  11.
 NSaved=11 IEnMin=11 EnMin= -266.379279513824     IErMin=11 ErrMin= 1.50D-07
 ErrMax= 1.50D-07  0.00D+00 EMaxC= 1.00D-01 BMatC= 9.64D-12 BMatP= 1.03D-10
 IDIUse=1 WtCom= 1.00D+00 WtEn= 0.00D+00
 Coeff-Com: -0.141D-06 0.138D-05 0.597D-05-0.711D-04-0.329D-03 0.172D-02
 Coeff-Com:  0.649D-02 0.145D-02-0.973D-01-0.914D-01 0.118D+01
 Coeff:     -0.141D-06 0.138D-05 0.597D-05-0.711D-04-0.329D-03 0.172D-02
 Coeff:      0.649D-02 0.145D-02-0.973D-01-0.914D-01 0.118D+01
 Gap=     0.307 Goal=   None    Shift=    0.000
 RMSDP=2.50D-08 MaxDP=1.10D-06 DE=-2.48D-10 OVMax= 3.21D-06

 Cycle  12  Pass 1  IDiag  1:
 E= -266.379279513852     Delta-E=       -0.000000000028 Rises=F Damp=F
 DIIS: error= 6.42D-08 at cycle  12 NSaved=  12.
 NSaved=12 IEnMin=12 EnMin= -266.379279513852     IErMin=12 ErrMin= 6.42D-08
 ErrMax= 6.42D-08  0.00D+00 EMaxC= 1.00D-01 BMatC= 1.16D-12 BMatP= 9.64D-12
 IDIUse=1 WtCom= 1.00D+00 WtEn= 0.00D+00
 Coeff-Com: -0.350D-05 0.516D-05 0.333D-04 0.429D-04-0.722D-04-0.143D-02
 Coeff-Com:  0.195D-03 0.932D-02 0.199D-01-0.816D-01-0.303D+00 0.136D+01
 Coeff:     -0.350D-05 0.516D-05 0.333D-04 0.429D-04-0.722D-04-0.143D-02
 Coeff:      0.195D-03 0.932D-02 0.199D-01-0.816D-01-0.303D+00 0.136D+01
 Gap=     0.307 Goal=   None    Shift=    0.000
 RMSDP=9.85D-09 MaxDP=4.02D-07 DE=-2.82D-11 OVMax= 1.50D-06

 SCF Done:  E(RHF) =  -266.379279514     A.U. after   12 cycles
            NFock= 12  Conv=0.98D-08     -V/T= 2.0005
 KE= 2.662475390153D+02 PE=-9.758300257528D+02 EE= 2.733850798247D+02
 Leave Link  502 at Tue Sep 30 16:59:13 2025, MaxMem=  4294967296 cpu:             219.5 elap:              20.3
 (Enter /software/sse/easybuild/prefix/software/Gaussian/16.C.01-avx2-nsc1/g16/l601.exe)
 Copying SCF densities to generalized density rwf, IOpCl= 0 IROHF=0.
 SCF density gives NOpUse=  2 NOpAll=  2.

 **********************************************************************

            Population analysis using the SCF Density.

 **********************************************************************

 Orbital symmetries:
 BldTbl:  Degeneracy threshold= 1.00D-02
       Occupied  (A') (A') (A') (A') (A') (A') (A') (A') (A') (A')
                 (A") (A') (A') (A') (A") (A') (A") (A') (A") (A')
       Virtual   (A') (A') (A") (A') (A") (A') (A') (A') (A") (A')
                 (A') (A") (A') (A") (A') (A') (A') (A") (A') (A")
                 (A") (A') (A') (A') (A') (A') (A') (A") (A") (A')
                 (A") (A') (A") (A') (A") (A') (A') (A") (A") (A')
                 (A') (A') (A") (A') (A') (A') (A") (A") (A') (A")
                 (A') (A") (A') (A') (A") (A') (A') (A") (A') (A')
                 (A') (A") (A') (A') (A") (A') (A') (A') (A") (A')
                 (A') (A") (A') (A') (A") (A") (A") (A') (A') (A')
                 (A") (A') (A") (A") (A') (A') (A') (A") (A") (A')
                 (A') (A') (A") (A") (A') (A") (A') (A') (A") (A')
                 (A") (A') (A') (A") (A') (A') (A") (A") (A') (A')
                 (A') (A") (A') (A") (A') (A") (A") (A') (A') (A")
                 (A') (A') (A") (A") (A') (A') (A") (A') (A') (A')
                 (A') (A") (A') (A") (A') (A") (A") (A') (A') (A')
                 (A") (A') (A") (A") (A') (A') (A') (A") (A') (A")
                 (A") (A') (A') (A') (A") (A') (A') (A") (A") (A')
                 (A") (A') (A') (A") (A') (A") (A') (A') (A') (A")
                 (A") (A') (A") (A') (A") (A') (A') (A') (A") (A')
                 (A') (A") (A") (A") (A') (A') (A') (A') (A') (A")
                 (A') (A") (A') (A') (A") (A") (A') (A') (A') (A')
                 (A') (A") (A") (A') (A") (A') (A") (A') (A") (A')
                 (A') (A") (A') (A") (A') (A") (A') (A') (A") (A')
                 (A") (A') (A") (A') (A") (A') (A") (A') (A") (A")
                 (A') (A') (A") (A") (A') (A') (A") (A") (A') (A")
                 (A') (A") (A') (A') (A") (A') (A') (A') (A") (A')
                 (A') (A') (A") (A') (A') (A") (A') (A") (A') (A')
                 (A') (A") (A') (A") (A') (A') (A") (A') (A") (A")
                 (A') (A') (A") (A") (A') (A") (A') (A") (A') (A')
                 (A") (A') (A") (A') (A') (A') (A") (A') (A') (A")
                 (A') (A') (A') (A") (A') (A") (A') (A") (A") (A')
                 (A') (A") (A") (A') (A') (A") (A") (A') (A') (A")
                 (A") (A') (A') (A") (A") (A') (A') (A') (A') (A')
                 (A') (A') (A') (A') (A')
 The electronic state is 1-A'.
 Alpha  occ. eigenvalues --  -20.28457 -20.27984 -11.12011 -11.05960 -11.04627
 Alpha  occ. eigenvalues --   -1.17702  -1.07191  -0.86734  -0.70285  -0.51048
 Alpha  occ. eigenvalues --   -0.45630  -0.44602  -0.40765  -0.37505  -0.36518
 Alpha  occ. eigenvalues --   -0.34062  -0.31196  -0.20377  -0.19046  -0.18915
 Alpha virt. eigenvalues --    0.11761   0.13535   0.13715   0.14584   0.15808
 Alpha virt. eigenvalues --    0.19401   0.20493   0.22044   0.22231   0.23428
 Alpha virt. eigenvalues --    0.24511   0.24804   0.25020   0.27148   0.27192
 Alpha virt. eigenvalues --    0.30290   0.32086   0.34481   0.35151   0.35504
 Alpha virt. eigenvalues --    0.36110   0.36411   0.38792   0.40753   0.41804
 Alpha virt. eigenvalues --    0.42046   0.42174   0.42518   0.45074   0.45409
 Alpha virt. eigenvalues --    0.46850   0.47471   0.47534   0.49183   0.49574
 Alpha virt. eigenvalues --    0.49709   0.51321   0.51728   0.53097   0.53537
 Alpha virt. eigenvalues --    0.55703   0.56355   0.57450   0.57988   0.59299
 Alpha virt. eigenvalues --    0.59719   0.59916   0.62728   0.63292   0.63968
 Alpha virt. eigenvalues --    0.64898   0.65683   0.65798   0.67054   0.67128
 Alpha virt. eigenvalues --    0.68032   0.72752   0.73674   0.73859   0.74651
 Alpha virt. eigenvalues --    0.78946   0.79086   0.84467   0.85538   0.87784
 Alpha virt. eigenvalues --    0.89829   0.91509   0.92676   0.92919   0.95445
 Alpha virt. eigenvalues --    0.96246   0.96399   0.97944   0.99101   0.99838
 Alpha virt. eigenvalues --    1.01284   1.02475   1.02957   1.03666   1.05346
 Alpha virt. eigenvalues --    1.05761   1.08521   1.09123   1.09571   1.09635
 Alpha virt. eigenvalues --    1.12272   1.12857   1.13319   1.13711   1.16100
 Alpha virt. eigenvalues --    1.17994   1.19242   1.19269   1.19644   1.21212
 Alpha virt. eigenvalues --    1.23661   1.24418   1.25982   1.26291   1.27257
 Alpha virt. eigenvalues --    1.28385   1.30140   1.30556   1.31422   1.33073
 Alpha virt. eigenvalues --    1.34352   1.36187   1.36759   1.37139   1.38496
 Alpha virt. eigenvalues --    1.40827   1.42874   1.44031   1.46397   1.49485
 Alpha virt. eigenvalues --    1.51053   1.53441   1.54257   1.55466   1.55478
 Alpha virt. eigenvalues --    1.60248   1.60593   1.61070   1.63203   1.63554
 Alpha virt. eigenvalues --    1.69017   1.69717   1.71524   1.73531   1.75881
 Alpha virt. eigenvalues --    1.77930   1.79688   1.81600   1.82060   1.84426
 Alpha virt. eigenvalues --    1.84804   1.85462   1.85827   1.89417   1.91025
 Alpha virt. eigenvalues --    1.91365   1.91739   1.93114   1.97174   1.97257
 Alpha virt. eigenvalues --    2.00217   2.00389   2.01847   2.03852   2.06357
 Alpha virt. eigenvalues --    2.09827   2.10314   2.11088   2.13575   2.16395
 Alpha virt. eigenvalues --    2.17531   2.25225   2.25690   2.29272   2.31238
 Alpha virt. eigenvalues --    2.33436   2.34806   2.38046   2.38855   2.42835
 Alpha virt. eigenvalues --    2.43577   2.43814   2.46630   2.48971   2.54497
 Alpha virt. eigenvalues --    2.55577   2.60208   2.60372   2.62009   2.62370
 Alpha virt. eigenvalues --    2.68592   2.72878   2.74434   2.75461   2.80742
 Alpha virt. eigenvalues --    2.83635   2.84773   2.86402   2.88098   2.90413
 Alpha virt. eigenvalues --    2.92531   2.97844   3.01989   3.03615   3.06805
 Alpha virt. eigenvalues --    3.13456   3.15610   3.22023   3.26481   3.27126
 Alpha virt. eigenvalues --    3.29769   3.31313   3.37395   3.40145   3.48795
 Alpha virt. eigenvalues --    3.51082   3.52003   3.55714   3.62795   3.65289
 Alpha virt. eigenvalues --    3.67942   3.70549   3.70660   3.72398   3.76050
 Alpha virt. eigenvalues --    3.82015   3.82610   3.86336   3.86988   3.88906
 Alpha virt. eigenvalues --    3.90635   3.91927   3.94171   3.96169   3.99606
 Alpha virt. eigenvalues --    4.00771   4.02146   4.06186   4.06615   4.11931
 Alpha virt. eigenvalues --    4.15818   4.17099   4.18940   4.19488   4.21806
 Alpha virt. eigenvalues --    4.26592   4.31357   4.32797   4.34732   4.37073
 Alpha virt. eigenvalues --    4.37876   4.38563   4.41167   4.42678   4.45787
 Alpha virt. eigenvalues --    4.46317   4.51699   4.59836   4.62709   4.64855
 Alpha virt. eigenvalues --    4.66953   4.72519   4.73192   4.77282   4.79570
 Alpha virt. eigenvalues --    4.85871   4.89157   4.91756   4.96299   4.99289
 Alpha virt. eigenvalues --    5.00312   5.03469   5.04661   5.05643   5.12203
 Alpha virt. eigenvalues --    5.19854   5.21867   5.22524   5.29276   5.29680
 Alpha virt. eigenvalues --    5.30853   5.31282   5.37274   5.41129   5.50127
 Alpha virt. eigenvalues --    5.50335   5.52195   5.54195   5.58798   5.61552
 Alpha virt. eigenvalues --    5.66491   5.69582   5.76434   5.78388   5.81380
 Alpha virt. eigenvalues --    5.87317   5.94881   6.04341   6.14327   6.17463
 Alpha virt. eigenvalues --    6.18941   6.27768   6.32585   6.36211   6.40633
 Alpha virt. eigenvalues --    6.46915   6.55875   6.64843   6.87481   6.92122
 Alpha virt. eigenvalues --    6.93169   6.93970   6.97110   7.02151   7.04726
 Alpha virt. eigenvalues --    7.17923   7.18206   7.20435   7.28712   7.33800
 Alpha virt. eigenvalues --    7.42898   7.50164   7.54586   7.61164   7.62875
 Alpha virt. eigenvalues --    7.64337   7.72925   7.84542   7.89557   7.94462
 Alpha virt. eigenvalues --    7.98244   8.09051   8.17255   8.21410   8.29848
 Alpha virt. eigenvalues --   15.00602  16.07081  17.37276  18.54744  19.47203
          Condensed to atoms (all electrons):
               1          2          3          4          5          6
     1  O    8.691449  -0.157333  -0.115363  -0.016998   0.405520   0.016272
     2  O   -0.157333   8.689139  -0.093419  -0.016122   0.383018  -0.005491
     3  C   -0.115363  -0.093419   5.393633   0.077325   0.073985   0.429123
     4  C   -0.016998  -0.016122   0.077325   5.630453   0.018459  -0.023768
     5  C    0.405520   0.383018   0.073985   0.018459   4.713696  -0.007286
     6  H    0.016272  -0.005491   0.429123  -0.023768  -0.007286   0.365167
     7  H    0.016272  -0.005491   0.429123  -0.023768  -0.007286   0.012176
     8  H    0.001601   0.012840   0.018320   0.374385  -0.010312  -0.000101
     9  H    0.001601   0.012840   0.018320   0.374385  -0.010312  -0.003054
    10  H   -0.003395  -0.009271  -0.052296   0.461539   0.008748  -0.003954
               7          8          9         10
     1  O    0.016272   0.001601   0.001601  -0.003395
     2  O   -0.005491   0.012840   0.012840  -0.009271
     3  C    0.429123   0.018320   0.018320  -0.052296
     4  C   -0.023768   0.374385   0.374385   0.461539
     5  C   -0.007286  -0.010312  -0.010312   0.008748
     6  H    0.012176  -0.000101  -0.003054  -0.003954
     7  H    0.365167  -0.003054  -0.000101  -0.003954
     8  H   -0.003054   0.304754   0.016919   0.004990
     9  H   -0.000101   0.016919   0.304754   0.004990
    10  H   -0.003954   0.004990   0.004990   0.340549
 Mulliken charges:
               1
     1  O   -0.839625
     2  O   -0.810710
     3  C   -0.178750
     4  C   -0.855890
     5  C    0.431770
     6  H    0.220915
     7  H    0.220915
     8  H    0.279659
     9  H    0.279659
    10  H    0.252056
 Sum of Mulliken charges =  -1.00000
 Mulliken charges with hydrogens summed into heavy atoms:
               1
     1  O   -0.839625
     2  O   -0.810710
     3  C    0.263081
     4  C   -0.044515
     5  C    0.431770
 DipInt: DoE/N= T F RetVal/Mat= T F Init=T NMatP=  1 IDeriv=0 Min/MaxMlt=  0  4
 Entering OneElI...
 OneElI was handed  4294558166 working-precision words.
 Multipole integrals L=0 to 4 MinM= 0 MaxM= 0.
 Requested accuracy = 0.1000D-12
 ShPair: Thresh= 1.00D-13 NBox=     0 BxSize= 0.00D+00 RnKept= 8.52D+00
         NSMCal=                 6670 NSMKep=                6620
 PrmmSu-InSpLW:  IPartL=    0 NPrtUS=    1 NPrtUL=    1 DoSpLW=F IThBeg=    0 IThEnd=    0 NThAct=    1.
 PrSmSu:  IncTry=   512 NBBP=           6620 NTPThr=   100 NPartT=    1 Incr=          66 LDynOK=F GPUOK=F.
 PrsmSu:  NPrtUS=   1 ThrOK=F IAlg=2 LenDen=           0 ISkipM=0 DoSpLW=F IThBeg=    0 IThEnd=    0.
 Prism:   IPart=     0 DynPar=F LinDyn=F Incr=          66.
 PRISM was handed  4294087194 working-precision words and  6620 shell-pairs
 IPart=  0 NShTot=        6620 NBatch=          84 AvBLen=        78.8
 PrsmSu-ThDecC:  IPartSL=    0    0 NPrtUSL=    1    1 IThBeg=    0 IThEnd=    0 CPU=   -1 GPU=   -1 NThAct=    1.
 PrSmSu:  NxtVal=             67.
 Electronic moments (au):
        -40.00000000         -0.48536025         -2.23855477         -0.00000000
       -122.23494168       -282.00140383        -34.50084129         16.22540612
         -0.00000000          0.00000000        -45.46599936        234.93299521
         -0.00000000         44.83821946        -66.74497778          0.00000000
          4.55892743         28.70520030         -0.00000000          0.00000000
       -857.84706474      -4097.77468696       -155.05689082        -56.66586640
         -0.00000000        561.25724845          0.00000000         -0.00000000
          0.00000000       -675.94121380       -142.19467167       -275.86500758
          0.00000000         -0.00000000         23.03047195
 Electronic spatial extent (au):  <R**2>=            438.7372
 DipInt: DoE/N= F T RetVal/Mat= T F Init=T NMatP=  1 IDeriv=0 Min/MaxMlt=  0  4
 Nuclear    moments (au):
         39.00000000          0.00000000         -0.00000000          0.00000000
         91.29136794        247.22889352         10.76737250        -14.98703641
          0.00000000         -0.00000000         40.95205663       -243.38263674
          0.00000000        -37.13256852         57.29652852         -0.00000000
         -4.12609524        -26.35034570          0.00000000         -0.00000000
        388.01169357       2909.54936117         28.98473030         77.91846270
          0.00000000       -495.14429699         -0.00000000          0.00000000
         -0.00000000        398.64138969         50.10788348         76.95887605
         -0.00000000          0.00000000        -14.50502421
 Total      moments (au):
         -1.00000000         -0.48536025         -2.23855477         -0.00000000
        -30.94357374        -34.77251030        -23.73346879          1.23836970
          0.00000000         -0.00000000         -4.51394273         -8.44964153
         -0.00000000          7.70565094         -9.44844926         -0.00000000
          0.43283219          2.35485461          0.00000000         -0.00000000
       -469.83537116      -1188.22532579       -126.07216052         21.25259630
          0.00000000         66.11295147         -0.00000000          0.00000000
         -0.00000000       -277.29982410        -92.08678819       -198.90613153
          0.00000000          0.00000000          8.52544774
 Traceless Quadrup. (au):
         -1.12705613         -4.95599269          6.08304882          1.23836970
          0.00000000         -0.00000000
 Charge=             -1.0000 electrons
 Dipole moment (field-independent basis, Debye):
    X=             -1.2337    Y=             -5.6898    Z=             -0.0000  Tot=              5.8220
 Quadrupole moment (field-independent basis, Debye-Ang):
   XX=            -41.6202   YY=            -46.7702   ZZ=            -31.9223
   XY=              1.6656   XZ=              0.0000   YZ=             -0.0000
 Traceless Quadrupole moment (field-independent basis, Debye-Ang):
   XX=             -1.5159   YY=             -6.6660   ZZ=              8.1819
   XY=              1.6656   XZ=              0.0000   YZ=             -0.0000
 Octapole moment (field-independent basis, Debye-Ang**2):
  XXX=             -3.2129  YYY=             -6.0141  ZZZ=             -0.0000  XYY=              5.4846
  XXY=             -6.7250  XXZ=             -0.0000  XZZ=              0.3081  YZZ=              1.6761
  YYZ=              0.0000  XYZ=             -0.0000
 Hexadecapole moment (field-independent basis, Debye-Ang**3):
 XXXX=           -176.9625 YYYY=           -447.5426 ZZZZ=            -47.4848 XXXY=              8.0047
 XXXZ=              0.0000 YYYX=             24.9013 YYYZ=             -0.0000 ZZZX=              0.0000
 ZZZY=             -0.0000 XXYY=           -104.4444 XXZZ=            -34.6843 YYZZ=            -74.9176
 XXYZ=              0.0000 YYXZ=              0.0000 ZZXY=              3.2111
 N-N= 1.698181273989D+02 E-N=-9.758300270572D+02  KE= 2.662475390153D+02
 Symmetry A'   KE= 2.547030867318D+02
 Symmetry A"   KE= 1.154445228349D+01
 SetAtRh:  ITypeU=  23 NETotI=      -1 ICharg=  0 NETot=      39.
 StAtR1:  I=    1 I1=    1 IA=  8 C=   8.0 OKShel=TTT
                                                  SSP
                                                  224
 StAtR1:  I=    2 I1=    2 IA=  8 C=   8.0 OKShel=TTT
                                                  SSP
                                                  224
 StAtR1:  I=    3 I1=    3 IA=  6 C=   6.0 OKShel=TTT
                                                  SSP
                                                  222
 StAtR1:  I=    4 I1=    4 IA=  6 C=   6.0 OKShel=TTT
                                                  SSP
                                                  222
 StAtR1:  I=    5 I1=    5 IA=  6 C=   6.0 OKShel=TTT
                                                  SSP
                                                  222
 StAtR1:  I=    6 I1=    6 IA=  1 C=   1.0 OKShel=T
                                                  S
                                                  1
 StAtR1:  I=    7 I1=    7 IA=  1 C=   1.0 OKShel=T
                                                  S
                                                  1
 StAtR1:  I=    8 I1=    8 IA=  1 C=   1.0 OKShel=T
                                                  S
                                                  1
 StAtR1:  I=    9 I1=    9 IA=  1 C=   1.0 OKShel=T
                                                  S
                                                  1
 StAtR1:  I=   10 I1=   10 IA=  1 C=   1.0 OKShel=T
                                                  S
                                                  1
          I=    1 IA=  8 I1=    1 NAtG=23 NE=   8.000 C=   8.000 Err=-3.68D-11
          I=    2 IA=  8 I1=    2 NAtG=23 NE=   8.000 C=   8.000 Err=-3.68D-11
          I=    3 IA=  6 I1=    3 NAtG=23 NE=   6.000 C=   6.000 Err= 1.75D-11
          I=    4 IA=  6 I1=    4 NAtG=23 NE=   6.000 C=   6.000 Err= 1.75D-11
          I=    5 IA=  6 I1=    5 NAtG=23 NE=   6.000 C=   6.000 Err= 1.75D-11
          I=    6 IA=  1 I1=    6 NAtG=20 NE=   1.000 C=   1.000 Err= 2.80D-12
          I=    7 IA=  1 I1=    7 NAtG=20 NE=   1.000 C=   1.000 Err= 2.80D-12
          I=    8 IA=  1 I1=    8 NAtG=20 NE=   1.000 C=   1.000 Err= 2.80D-12
          I=    9 IA=  1 I1=    9 NAtG=20 NE=   1.000 C=   1.000 Err= 2.80D-12
          I=   10 IA=  1 I1=   10 NAtG=20 NE=   1.000 C=   1.000 Err= 2.80D-12
 Pruned (  99, 590) grid will be used in numerical quadrature.
 IPart=  0 IRanGd=          0 ScrnBf=T ScrnGd=T RCrit=4.00D+00 DoMicB=T.
 CutRad = 1000.00    CtRdIn =    0.00    XCrit =  15.00   ICut = 0
 Pruned (  99, 590) grid will be used in numerical quadrature.
 IPart=  1 IRanGd=          0 ScrnBf=T ScrnGd=T RCrit=4.00D+00 DoMicB=T.
 Pruned (  99, 590) grid will be used in numerical quadrature.
 CutRad = 1000.00    CtRdIn =    0.00    XCrit =  15.00   ICut = 0
 Pruned (  99, 590) grid will be used in numerical quadrature.
 IPart= 14 IRanGd=          0 ScrnBf=T ScrnGd=T RCrit=4.00D+00 DoMicB=T.
 CutRad = 1000.00    CtRdIn =    0.00    XCrit =  15.00   ICut = 0
 IPart= 15 IRanGd=          0 ScrnBf=T ScrnGd=T RCrit=4.00D+00 DoMicB=T.
 CutRad = 1000.00    CtRdIn =    0.00    XCrit =  15.00   ICut = 0
 Pruned (  99, 590) grid will be used in numerical quadrature.
 Pruned (  99, 590) grid will be used in numerical quadrature.
 IPart= 11 IRanGd=          0 ScrnBf=T ScrnGd=T RCrit=4.00D+00 DoMicB=T.
 Pruned (  99, 590) grid will be used in numerical quadrature.
 Pruned (  99, 590) grid will be used in numerical quadrature.
 IPart=  8 IRanGd=          0 ScrnBf=T ScrnGd=T RCrit=4.00D+00 DoMicB=T.
 IPart=  0 Atom number   1 atomic number  8 has       23718 grid points.
 IPart=  5 IRanGd=          0 ScrnBf=T ScrnGd=T RCrit=4.00D+00 DoMicB=T.
 Pruned (  99, 590) grid will be used in numerical quadrature.
 CutRad = 1000.00    CtRdIn =    0.00    XCrit =  15.00   ICut = 0
 CutRad = 1000.00    CtRdIn =    0.00    XCrit =  15.00   ICut = 0
 IPart=  0 Atom   1 batch    1 overlaps   10 atoms,   100 shells and    10 DB shells.   NGrid=      2408
 Pruned (  99, 590) grid will be used in numerical quadrature.
 Pruned (  99, 590) grid will be used in numerical quadrature.
 Pruned (  99, 590) grid will be used in numerical quadrature.
 IPart= 10 IRanGd=          0 ScrnBf=T ScrnGd=T RCrit=4.00D+00 DoMicB=T.
 IPart=  6 IRanGd=          0 ScrnBf=T ScrnGd=T RCrit=4.00D+00 DoMicB=T.
 Pruned (  99, 590) grid will be used in numerical quadrature.
 Pruned (  99, 590) grid will be used in numerical quadrature.
 CutRad = 1000.00    CtRdIn =    0.00    XCrit =  15.00   ICut = 0
 IPart= 12 IRanGd=          0 ScrnBf=T ScrnGd=T RCrit=4.00D+00 DoMicB=T.
 IPart=  7 IRanGd=          0 ScrnBf=T ScrnGd=T RCrit=4.00D+00 DoMicB=T.
 CutRad = 1000.00    CtRdIn =    0.00    XCrit =  15.00   ICut = 0
 Pruned (  99, 590) grid will be used in numerical quadrature.
 Pruned (  99, 590) grid will be used in numerical quadrature.
 Pruned (  99, 590) grid will be used in numerical quadrature.
 Symmetry reduced    86 angular points to    86 for atom    1.
 IPart=  3 IRanGd=          0 ScrnBf=T ScrnGd=T RCrit=4.00D+00 DoMicB=T.
 CutRad = 1000.00    CtRdIn =    0.00    XCrit =  15.00   ICut = 0
 IPart=  2 IRanGd=          0 ScrnBf=T ScrnGd=T RCrit=4.00D+00 DoMicB=T.
 CutRad = 1000.00    CtRdIn =    0.00    XCrit =  15.00   ICut = 0
 IPart= 13 IRanGd=          0 ScrnBf=T ScrnGd=T RCrit=4.00D+00 DoMicB=T.
 IPart=  9 IRanGd=          0 ScrnBf=T ScrnGd=T RCrit=4.00D+00 DoMicB=T.
 CutRad = 1000.00    CtRdIn =    0.00    XCrit =  15.00   ICut = 0
 CutRad = 1000.00    CtRdIn =    0.00    XCrit =  15.00   ICut = 0
 CutRad = 1000.00    CtRdIn =    0.00    XCrit =  15.00   ICut = 0
 IPart=  4 IRanGd=          0 ScrnBf=T ScrnGd=T RCrit=4.00D+00 DoMicB=T.
 CutRad = 1000.00    CtRdIn =    0.00    XCrit =  15.00   ICut = 0
 CutRad = 1000.00    CtRdIn =    0.00    XCrit =  15.00   ICut = 0
 CutRad = 1000.00    CtRdIn =    0.00    XCrit =  15.00   ICut = 0
 Pruned (  99, 590) grid will be used in numerical quadrature.
 IPart=  1 Atom number   1 atomic number  8 has       23718 grid points.
 IPart=  1 Atom   1 batch    2 overlaps   10 atoms,   101 shells and    10 DB shells.   NGrid=      2522
 Pruned (  99, 590) grid will be used in numerical quadrature.
 Pruned (  99, 590) grid will be used in numerical quadrature.
 IPart= 14 Atom number   1 atomic number  8 has       23718 grid points.
 IPart= 15 Atom number   1 atomic number  8 has       23718 grid points.
 IPart= 14 Atom   1 batch    3 overlaps   10 atoms,   102 shells and    10 DB shells.   NGrid=      2114
 IPart= 15 Atom   1 batch    4 overlaps   10 atoms,   102 shells and    10 DB shells.   NGrid=      1180
 Symmetry reduced   194 angular points to   194 for atom    1.
 Symmetry reduced   302 angular points to   302 for atom    1.
 Symmetry reduced   590 angular points to   590 for atom    1.
 Pruned (  99, 590) grid will be used in numerical quadrature.
 Pruned (  99, 590) grid will be used in numerical quadrature.
 IPart= 11 Atom number   1 atomic number  8 has       23718 grid points.
 IPart=  8 Atom number   1 atomic number  8 has       23718 grid points.
 IPart= 11 Atom   1 batch    5 overlaps   10 atoms,   104 shells and    10 DB shells.   NGrid=      1180
 IPart=  8 Atom   1 batch    6 overlaps   10 atoms,   106 shells and    10 DB shells.   NGrid=      1180
 Symmetry reduced   590 angular points to   590 for atom    1.
 Symmetry reduced   590 angular points to   590 for atom    1.
 Pruned (  99, 590) grid will be used in numerical quadrature.
 IPart=  6 Atom number   1 atomic number  8 has       23718 grid points.
 IPart=  6 Atom   1 batch    7 overlaps   10 atoms,   106 shells and    10 DB shells.   NGrid=      1180
 Symmetry reduced   590 angular points to   590 for atom    1.
 Pruned (  99, 590) grid will be used in numerical quadrature.
 IPart= 12 Atom number   1 atomic number  8 has       23718 grid points.
 IPart= 12 Atom   1 batch    8 overlaps   10 atoms,   107 shells and    10 DB shells.   NGrid=      1180
 Symmetry reduced   590 angular points to   590 for atom    1.
 Pruned (  99, 590) grid will be used in numerical quadrature.
 IPart=  3 Atom number   1 atomic number  8 has       23718 grid points.
 Pruned (  99, 590) grid will be used in numerical quadrature.
 IPart=  3 Atom   1 batch    9 overlaps   10 atoms,   109 shells and    10 DB shells.   NGrid=      1180
 IPart=  2 Atom number   1 atomic number  8 has       23718 grid points.
 Symmetry reduced   590 angular points to   590 for atom    1.
 IPart=  2 Atom   1 batch   10 overlaps   10 atoms,   112 shells and    10 DB shells.   NGrid=      1180
 Pruned (  99, 590) grid will be used in numerical quadrature.
 Pruned (  99, 590) grid will be used in numerical quadrature.
 Pruned (  99, 590) grid will be used in numerical quadrature.
 Symmetry reduced   590 angular points to   590 for atom    1.
 IPart=  7 Atom number   1 atomic number  8 has       23718 grid points.
 IPart=  9 Atom number   1 atomic number  8 has       23718 grid points.
 Pruned (  99, 590) grid will be used in numerical quadrature.
 IPart= 13 Atom number   1 atomic number  8 has       23718 grid points.
 IPart=  5 Atom number   1 atomic number  8 has       23718 grid points.
 IPart= 13 Atom   1 batch   12 overlaps   10 atoms,   113 shells and    10 DB shells.   NGrid=       590
 Pruned (  99, 590) grid will be used in numerical quadrature.
 IPart=  5 Atom   1 batch   16 overlaps   10 atoms,   109 shells and    10 DB shells.   NGrid=       604
 IPart= 10 Atom number   1 atomic number  8 has       23718 grid points.
 Symmetry reduced   302 angular points to   302 for atom    1.
 IPart= 10 Atom   1 batch   15 overlaps   10 atoms,   111 shells and    10 DB shells.   NGrid=       604
 IPart=  7 Atom   1 batch   13 overlaps   10 atoms,   114 shells and    10 DB shells.   NGrid=       604
 Symmetry reduced   302 angular points to   302 for atom    1.
 Pruned (  99, 590) grid will be used in numerical quadrature.
 IPart=  9 Atom   1 batch   11 overlaps   10 atoms,   113 shells and    10 DB shells.   NGrid=      1180
 IPart=  4 Atom number   1 atomic number  8 has       23718 grid points.
 Symmetry reduced   590 angular points to   590 for atom    1.
 IPart=  4 Atom   1 batch   14 overlaps   10 atoms,   114 shells and    10 DB shells.   NGrid=       604
 Symmetry reduced   302 angular points to   302 for atom    1.
 Symmetry reduced   302 angular points to   302 for atom    1.
 Symmetry reduced   590 angular points to   590 for atom    1.
 IPart=  5 Atom   1 batch   17 overlaps   10 atoms,   108 shells and    10 DB shells.   NGrid=       604
 IPart= 10 Atom   1 batch   18 overlaps   10 atoms,   100 shells and    10 DB shells.   NGrid=       604
 IPart= 13 Atom   1 batch   19 overlaps   10 atoms,    87 shells and    10 DB shells.   NGrid=       604
 IPart=  7 Atom   1 batch   20 overlaps   10 atoms,    64 shells and     9 DB shells.   NGrid=       604
 Symmetry reduced   302 angular points to   302 for atom    1.
 IPart=  4 Atom   1 batch   21 overlaps   10 atoms,    40 shells and     8 DB shells.   NGrid=       604
 IPart=  7 Atom   1 batch   22 overlaps   10 atoms,    21 shells and     4 DB shells.   NGrid=       604
 IPart=  4 Atom   1 batch   23 overlaps   10 atoms,     8 shells and     0 DB shells.   NGrid=       604
 Pruned (  99, 590) grid will be used in numerical quadrature.
 IPart=  4 Atom number   2 atomic number  8 has       23718 grid points.
 IPart=  4 Atom   2 batch    1 overlaps   10 atoms,   107 shells and    10 DB shells.   NGrid=      2408
 Symmetry reduced    86 angular points to    86 for atom    2.
 Pruned (  99, 590) grid will be used in numerical quadrature.
 IPart=  7 Atom number   2 atomic number  8 has       23718 grid points.
 IPart=  7 Atom   2 batch    2 overlaps   10 atoms,   109 shells and    10 DB shells.   NGrid=      2522
 Symmetry reduced   194 angular points to   194 for atom    2.
 Pruned (  99, 590) grid will be used in numerical quadrature.
 IPart= 13 Atom number   2 atomic number  8 has       23718 grid points.
 IPart= 13 Atom   2 batch    3 overlaps   10 atoms,   109 shells and    10 DB shells.   NGrid=      2114
 Symmetry reduced   302 angular points to   302 for atom    2.
 Pruned (  99, 590) grid will be used in numerical quadrature.
 IPart=  5 Atom number   2 atomic number  8 has       23718 grid points.
 IPart=  5 Atom   2 batch    4 overlaps   10 atoms,   110 shells and    10 DB shells.   NGrid=      1180
 Symmetry reduced   590 angular points to   590 for atom    2.
 Pruned (  99, 590) grid will be used in numerical quadrature.
 IPart= 10 Atom number   2 atomic number  8 has       23718 grid points.
 IPart= 10 Atom   2 batch    5 overlaps   10 atoms,   111 shells and    10 DB shells.   NGrid=      1180
 Symmetry reduced   590 angular points to   590 for atom    2.
 Pruned (  99, 590) grid will be used in numerical quadrature.
 IPart= 11 Atom number   2 atomic number  8 has       23718 grid points.
 IPart= 11 Atom   2 batch    6 overlaps   10 atoms,   111 shells and    10 DB shells.   NGrid=      1180
 Symmetry reduced   590 angular points to   590 for atom    2.
 Pruned (  99, 590) grid will be used in numerical quadrature.
 IPart= 15 Atom number   2 atomic number  8 has       23718 grid points.
 IPart= 15 Atom   2 batch    7 overlaps   10 atoms,   111 shells and    10 DB shells.   NGrid=      1180
 Symmetry reduced   590 angular points to   590 for atom    2.
 Pruned (  99, 590) grid will be used in numerical quadrature.
 IPart=  8 Atom number   2 atomic number  8 has       23718 grid points.
 IPart=  8 Atom   2 batch    8 overlaps   10 atoms,   113 shells and    10 DB shells.   NGrid=      1180
 Symmetry reduced   590 angular points to   590 for atom    2.
 Pruned (  99, 590) grid will be used in numerical quadrature.
 IPart=  3 Atom number   2 atomic number  8 has       23718 grid points.
 IPart=  3 Atom   2 batch    9 overlaps   10 atoms,   115 shells and    10 DB shells.   NGrid=      1180
 Symmetry reduced   590 angular points to   590 for atom    2.
 Pruned (  99, 590) grid will be used in numerical quadrature.
 IPart= 12 Atom number   2 atomic number  8 has       23718 grid points.
 IPart= 12 Atom   2 batch   10 overlaps   10 atoms,   115 shells and    10 DB shells.   NGrid=      1180
 Symmetry reduced   590 angular points to   590 for atom    2.
 Pruned (  99, 590) grid will be used in numerical quadrature.
 IPart=  6 Atom number   2 atomic number  8 has       23718 grid points.
 IPart=  6 Atom   2 batch   11 overlaps   10 atoms,   115 shells and    10 DB shells.   NGrid=      1180
 Symmetry reduced   590 angular points to   590 for atom    2.
 Pruned (  99, 590) grid will be used in numerical quadrature.
 IPart=  2 Atom number   2 atomic number  8 has       23718 grid points.
 IPart=  2 Atom   2 batch   12 overlaps   10 atoms,   114 shells and    10 DB shells.   NGrid=       590
 Symmetry reduced   590 angular points to   590 for atom    2.
 Pruned (  99, 590) grid will be used in numerical quadrature.
 IPart=  9 Atom number   2 atomic number  8 has       23718 grid points.
 IPart=  9 Atom   2 batch   13 overlaps   10 atoms,   114 shells and    10 DB shells.   NGrid=       604
 Symmetry reduced   302 angular points to   302 for atom    2.
 Pruned (  99, 590) grid will be used in numerical quadrature.
 IPart=  0 Atom number   2 atomic number  8 has       23718 grid points.
 IPart=  0 Atom   2 batch   14 overlaps   10 atoms,   114 shells and    10 DB shells.   NGrid=       604
 Symmetry reduced   302 angular points to   302 for atom    2.
 Pruned (  99, 590) grid will be used in numerical quadrature.
 IPart= 14 Atom number   2 atomic number  8 has       23718 grid points.
 IPart= 14 Atom   2 batch   15 overlaps   10 atoms,   111 shells and    10 DB shells.   NGrid=       604
 Symmetry reduced   302 angular points to   302 for atom    2.
 IPart=  2 Atom   2 batch   16 overlaps   10 atoms,   109 shells and    10 DB shells.   NGrid=       604
 Symmetry reduced   302 angular points to   302 for atom    2.
 IPart=  9 Atom   2 batch   17 overlaps   10 atoms,   108 shells and    10 DB shells.   NGrid=       604
 Pruned (  99, 590) grid will be used in numerical quadrature.
 IPart=  1 Atom number   2 atomic number  8 has       23718 grid points.
 IPart=  1 Atom   2 batch   18 overlaps   10 atoms,    98 shells and    10 DB shells.   NGrid=       604
 Symmetry reduced   302 angular points to   302 for atom    2.
 IPart=  5 Atom   2 batch   19 overlaps   10 atoms,    87 shells and    10 DB shells.   NGrid=       604
 IPart= 10 Atom   2 batch   20 overlaps   10 atoms,    61 shells and     9 DB shells.   NGrid=       604
 Symmetry reduced   302 angular points to   302 for atom    2.
 Symmetry reduced   302 angular points to   302 for atom    2.
 IPart= 10 Atom   2 batch   21 overlaps   10 atoms,    37 shells and     8 DB shells.   NGrid=       604
 IPart=  9 Atom   2 batch   22 overlaps   10 atoms,    18 shells and     1 DB shells.   NGrid=       604
 IPart=  1 Atom   2 batch   23 overlaps   10 atoms,     7 shells and     0 DB shells.   NGrid=       604
 Pruned (  99, 590) grid will be used in numerical quadrature.
 IPart= 10 Atom number   3 atomic number  6 has       23114 grid points.
 IPart= 10 Atom   3 batch    1 overlaps   10 atoms,   113 shells and    10 DB shells.   NGrid=      2408
 Symmetry reduced    86 angular points to    86 for atom    3.
 Pruned (  99, 590) grid will be used in numerical quadrature.
 IPart= 15 Atom number   3 atomic number  6 has       23114 grid points.
 IPart= 15 Atom   3 batch    2 overlaps   10 atoms,   113 shells and    10 DB shells.   NGrid=      2522
 Symmetry reduced   194 angular points to   194 for atom    3.
 Pruned (  99, 590) grid will be used in numerical quadrature.
 IPart= 11 Atom number   3 atomic number  6 has       23114 grid points.
 IPart= 11 Atom   3 batch    3 overlaps   10 atoms,   113 shells and    10 DB shells.   NGrid=      2114
 Symmetry reduced   302 angular points to   302 for atom    3.
 Pruned (  99, 590) grid will be used in numerical quadrature.
 IPart=  1 Atom number   3 atomic number  6 has       23114 grid points.
 IPart=  1 Atom   3 batch    4 overlaps   10 atoms,   113 shells and    10 DB shells.   NGrid=      1180
 Symmetry reduced   590 angular points to   590 for atom    3.
 Pruned (  99, 590) grid will be used in numerical quadrature.
 IPart=  5 Atom number   3 atomic number  6 has       23114 grid points.
 IPart=  5 Atom   3 batch    5 overlaps   10 atoms,   113 shells and    10 DB shells.   NGrid=      1180
 Symmetry reduced   590 angular points to   590 for atom    3.
 Pruned (  99, 590) grid will be used in numerical quadrature.
 IPart=  9 Atom number   3 atomic number  6 has       23114 grid points.
 IPart=  9 Atom   3 batch    6 overlaps   10 atoms,   113 shells and    10 DB shells.   NGrid=      1180
 Symmetry reduced   590 angular points to   590 for atom    3.
 Pruned (  99, 590) grid will be used in numerical quadrature.
 IPart=  0 Atom number   3 atomic number  6 has       23114 grid points.
 Pruned (  99, 590) grid will be used in numerical quadrature.
 Pruned (  99, 590) grid will be used in numerical quadrature.
 IPart=  8 Atom number   3 atomic number  6 has       23114 grid points.
 IPart=  3 Atom number   3 atomic number  6 has       23114 grid points.
 IPart=  8 Atom   3 batch    8 overlaps   10 atoms,   115 shells and    10 DB shells.   NGrid=      1180
 IPart=  3 Atom   3 batch    9 overlaps   10 atoms,   115 shells and    10 DB shells.   NGrid=      1180
 IPart=  0 Atom   3 batch    7 overlaps   10 atoms,   115 shells and    10 DB shells.   NGrid=      1180
 Symmetry reduced   590 angular points to   590 for atom    3.
 Symmetry reduced   590 angular points to   590 for atom    3.
 Symmetry reduced   590 angular points to   590 for atom    3.
 Pruned (  99, 590) grid will be used in numerical quadrature.
 Pruned (  99, 590) grid will be used in numerical quadrature.
 IPart= 12 Atom number   3 atomic number  6 has       23114 grid points.
 IPart=  2 Atom number   3 atomic number  6 has       23114 grid points.
 IPart= 12 Atom   3 batch   10 overlaps   10 atoms,   115 shells and    10 DB shells.   NGrid=      1180
 IPart=  2 Atom   3 batch   11 overlaps   10 atoms,   114 shells and    10 DB shells.   NGrid=      1180
 Symmetry reduced   590 angular points to   590 for atom    3.
 Symmetry reduced   590 angular points to   590 for atom    3.
 Pruned (  99, 590) grid will be used in numerical quadrature.
 IPart=  6 Atom number   3 atomic number  6 has       23114 grid points.
 IPart=  6 Atom   3 batch   12 overlaps   10 atoms,   114 shells and    10 DB shells.   NGrid=       590
 Symmetry reduced   590 angular points to   590 for atom    3.
 Pruned (  99, 590) grid will be used in numerical quadrature.
 IPart= 14 Atom number   3 atomic number  6 has       23114 grid points.
 IPart= 14 Atom   3 batch   13 overlaps   10 atoms,   114 shells and    10 DB shells.   NGrid=       604
 Symmetry reduced   302 angular points to   302 for atom    3.
 Pruned (  99, 590) grid will be used in numerical quadrature.
 IPart=  4 Atom number   3 atomic number  6 has       23114 grid points.
 IPart=  4 Atom   3 batch   14 overlaps   10 atoms,   114 shells and    10 DB shells.   NGrid=       604
 Symmetry reduced   302 angular points to   302 for atom    3.
 Pruned (  99, 590) grid will be used in numerical quadrature.
 IPart= 13 Atom number   3 atomic number  6 has       23114 grid points.
 IPart= 13 Atom   3 batch   15 overlaps   10 atoms,   109 shells and    10 DB shells.   NGrid=       604
 Symmetry reduced   302 angular points to   302 for atom    3.
 Pruned (  99, 590) grid will be used in numerical quadrature.
 IPart=  7 Atom number   3 atomic number  6 has       23114 grid points.
 IPart=  7 Atom   3 batch   16 overlaps   10 atoms,   102 shells and    10 DB shells.   NGrid=       604
 Symmetry reduced   302 angular points to   302 for atom    3.
 IPart=  6 Atom   3 batch   17 overlaps   10 atoms,    82 shells and    10 DB shells.   NGrid=       604
 Symmetry reduced   302 angular points to   302 for atom    3.
 IPart= 14 Atom   3 batch   18 overlaps   10 atoms,    66 shells and    10 DB shells.   NGrid=       604
 IPart= 14 Atom   3 batch   19 overlaps   10 atoms,    45 shells and    10 DB shells.   NGrid=       604
 IPart= 14 Atom   3 batch   20 overlaps   10 atoms,    30 shells and     5 DB shells.   NGrid=       604
 IPart=  6 Atom   3 batch   21 overlaps   10 atoms,    15 shells and     0 DB shells.   NGrid=       604
 IPart=  4 Atom   3 batch   22 overlaps   10 atoms,     6 shells and     0 DB shells.   NGrid=       604
 Pruned (  99, 590) grid will be used in numerical quadrature.
 IPart= 13 Atom number   4 atomic number  6 has       23114 grid points.
 IPart= 13 Atom   4 batch    1 overlaps   10 atoms,   105 shells and    10 DB shells.   NGrid=      2408
 Symmetry reduced    86 angular points to    86 for atom    4.
 Pruned (  99, 590) grid will be used in numerical quadrature.
 IPart= 14 Atom number   4 atomic number  6 has       23114 grid points.
 IPart= 14 Atom   4 batch    2 overlaps   10 atoms,   106 shells and    10 DB shells.   NGrid=      2522
 Symmetry reduced   194 angular points to   194 for atom    4.
 Pruned (  99, 590) grid will be used in numerical quadrature.
 Pruned (  99, 590) grid will be used in numerical quadrature.
 IPart=  6 Atom number   4 atomic number  6 has       23114 grid points.
 IPart=  4 Atom number   4 atomic number  6 has       23114 grid points.
 IPart=  6 Atom   4 batch    3 overlaps   10 atoms,   108 shells and    10 DB shells.   NGrid=      2114
 IPart=  4 Atom   4 batch    4 overlaps   10 atoms,   108 shells and    10 DB shells.   NGrid=      1180
 Symmetry reduced   302 angular points to   302 for atom    4.
 Symmetry reduced   590 angular points to   590 for atom    4.
 Pruned (  99, 590) grid will be used in numerical quadrature.
 IPart=  7 Atom number   4 atomic number  6 has       23114 grid points.
 IPart=  7 Atom   4 batch    5 overlaps   10 atoms,   110 shells and    10 DB shells.   NGrid=      1180
 Symmetry reduced   590 angular points to   590 for atom    4.
 Pruned (  99, 590) grid will be used in numerical quadrature.
 IPart=  2 Atom number   4 atomic number  6 has       23114 grid points.
 IPart=  2 Atom   4 batch    6 overlaps   10 atoms,   110 shells and    10 DB shells.   NGrid=      1180
 Symmetry reduced   590 angular points to   590 for atom    4.
 Pruned (  99, 590) grid will be used in numerical quadrature.
 Pruned (  99, 590) grid will be used in numerical quadrature.
 IPart= 12 Atom number   4 atomic number  6 has       23114 grid points.
 IPart=  9 Atom number   4 atomic number  6 has       23114 grid points.
 IPart= 12 Atom   4 batch    7 overlaps   10 atoms,   110 shells and    10 DB shells.   NGrid=      1180
 IPart=  9 Atom   4 batch    8 overlaps   10 atoms,   111 shells and    10 DB shells.   NGrid=      1180
 Symmetry reduced   590 angular points to   590 for atom    4.
 Symmetry reduced   590 angular points to   590 for atom    4.
 Pruned (  99, 590) grid will be used in numerical quadrature.
 IPart=  5 Atom number   4 atomic number  6 has       23114 grid points.
 IPart=  5 Atom   4 batch    9 overlaps   10 atoms,   114 shells and    10 DB shells.   NGrid=      1180
 Symmetry reduced   590 angular points to   590 for atom    4.
 Pruned (  99, 590) grid will be used in numerical quadrature.
 IPart=  1 Atom number   4 atomic number  6 has       23114 grid points.
 IPart=  1 Atom   4 batch   10 overlaps   10 atoms,   114 shells and    10 DB shells.   NGrid=      1180
 Symmetry reduced   590 angular points to   590 for atom    4.
 Pruned (  99, 590) grid will be used in numerical quadrature.
 IPart=  3 Atom number   4 atomic number  6 has       23114 grid points.
 IPart=  3 Atom   4 batch   11 overlaps   10 atoms,   113 shells and    10 DB shells.   NGrid=      1180
 Pruned (  99, 590) grid will be used in numerical quadrature.
 Symmetry reduced   590 angular points to   590 for atom    4.
 IPart=  8 Atom number   4 atomic number  6 has       23114 grid points.
 IPart=  8 Atom   4 batch   12 overlaps   10 atoms,   113 shells and    10 DB shells.   NGrid=       590
 Symmetry reduced   590 angular points to   590 for atom    4.
 Pruned (  99, 590) grid will be used in numerical quadrature.
 IPart=  0 Atom number   4 atomic number  6 has       23114 grid points.
 IPart=  0 Atom   4 batch   13 overlaps   10 atoms,   114 shells and    10 DB shells.   NGrid=       604
 Symmetry reduced   302 angular points to   302 for atom    4.
 IPart=  0 Atom   4 batch   14 overlaps   10 atoms,   114 shells and    10 DB shells.   NGrid=       604
 IPart=  8 Atom   4 batch   15 overlaps   10 atoms,   110 shells and    10 DB shells.   NGrid=       604
 Symmetry reduced   302 angular points to   302 for atom    4.
 IPart=  4 Atom   4 batch   16 overlaps   10 atoms,   102 shells and    10 DB shells.   NGrid=       604
 Symmetry reduced   302 angular points to   302 for atom    4.
 Pruned (  99, 590) grid will be used in numerical quadrature.
 IPart=  7 Atom   4 batch   18 overlaps   10 atoms,    71 shells and    10 DB shells.   NGrid=       604
 IPart= 11 Atom number   4 atomic number  6 has       23114 grid points.
 Symmetry reduced   302 angular points to   302 for atom    4.
 IPart= 11 Atom   4 batch   17 overlaps   10 atoms,    88 shells and    10 DB shells.   NGrid=       604
 Symmetry reduced   302 angular points to   302 for atom    4.
 Pruned (  99, 590) grid will be used in numerical quadrature.
 IPart= 10 Atom number   4 atomic number  6 has       23114 grid points.
 IPart= 10 Atom   4 batch   19 overlaps   10 atoms,    46 shells and    10 DB shells.   NGrid=       604
 Symmetry reduced   302 angular points to   302 for atom    4.
 IPart=  7 Atom   4 batch   20 overlaps   10 atoms,    33 shells and     5 DB shells.   NGrid=       604
 IPart= 10 Atom   4 batch   21 overlaps   10 atoms,    15 shells and     0 DB shells.   NGrid=       604
 IPart=  8 Atom   4 batch   22 overlaps   10 atoms,     6 shells and     0 DB shells.   NGrid=       604
 Pruned (  99, 590) grid will be used in numerical quadrature.
 IPart=  7 Atom number   5 atomic number  6 has       23114 grid points.
 IPart=  7 Atom   5 batch    1 overlaps   10 atoms,   111 shells and    10 DB shells.   NGrid=      2408
 Symmetry reduced    86 angular points to    86 for atom    5.
 Pruned (  99, 590) grid will be used in numerical quadrature.
 IPart=  8 Atom number   5 atomic number  6 has       23114 grid points.
 IPart=  8 Atom   5 batch    2 overlaps   10 atoms,   112 shells and    10 DB shells.   NGrid=      2522
 Pruned (  99, 590) grid will be used in numerical quadrature.
 Symmetry reduced   194 angular points to   194 for atom    5.
 IPart= 10 Atom number   5 atomic number  6 has       23114 grid points.
 IPart= 10 Atom   5 batch    3 overlaps   10 atoms,   113 shells and    10 DB shells.   NGrid=      2114
 Symmetry reduced   302 angular points to   302 for atom    5.
 Pruned (  99, 590) grid will be used in numerical quadrature.
 IPart=  2 Atom number   5 atomic number  6 has       23114 grid points.
 Pruned (  99, 590) grid will be used in numerical quadrature.
 IPart=  2 Atom   5 batch    4 overlaps   10 atoms,   114 shells and    10 DB shells.   NGrid=      1180
 IPart= 11 Atom number   5 atomic number  6 has       23114 grid points.
 IPart= 11 Atom   5 batch    5 overlaps   10 atoms,   115 shells and    10 DB shells.   NGrid=      1180
 Symmetry reduced   590 angular points to   590 for atom    5.
 Symmetry reduced   590 angular points to   590 for atom    5.
 Pruned (  99, 590) grid will be used in numerical quadrature.
 IPart=  0 Atom number   5 atomic number  6 has       23114 grid points.
 IPart=  0 Atom   5 batch    6 overlaps   10 atoms,   115 shells and    10 DB shells.   NGrid=      1180
 Symmetry reduced   590 angular points to   590 for atom    5.
 Pruned (  99, 590) grid will be used in numerical quadrature.
 IPart=  3 Atom number   5 atomic number  6 has       23114 grid points.
 IPart=  3 Atom   5 batch    7 overlaps   10 atoms,   115 shells and    10 DB shells.   NGrid=      1180
 Symmetry reduced   590 angular points to   590 for atom    5.
 Pruned (  99, 590) grid will be used in numerical quadrature.
 IPart=  1 Atom number   5 atomic number  6 has       23114 grid points.
 Pruned (  99, 590) grid will be used in numerical quadrature.
 IPart=  1 Atom   5 batch    8 overlaps   10 atoms,   115 shells and    10 DB shells.   NGrid=      1180
 IPart=  4 Atom number   5 atomic number  6 has       23114 grid points.
 Symmetry reduced   590 angular points to   590 for atom    5.
 IPart=  4 Atom   5 batch    9 overlaps   10 atoms,   115 shells and    10 DB shells.   NGrid=      1180
 Symmetry reduced   590 angular points to   590 for atom    5.
 Pruned (  99, 590) grid will be used in numerical quadrature.
 IPart= 15 Atom number   4 atomic number  6 has       23114 grid points.
 Pruned (  99, 590) grid will be used in numerical quadrature.
 IPart= 15 Atom number   5 atomic number  6 has       23114 grid points.
 IPart= 15 Atom   5 batch   10 overlaps   10 atoms,   115 shells and    10 DB shells.   NGrid=      1180
 Symmetry reduced   590 angular points to   590 for atom    5.
 Pruned (  99, 590) grid will be used in numerical quadrature.
 IPart=  9 Atom number   5 atomic number  6 has       23114 grid points.
 IPart=  9 Atom   5 batch   11 overlaps   10 atoms,   114 shells and    10 DB shells.   NGrid=      1180
 Pruned (  99, 590) grid will be used in numerical quadrature.
 Symmetry reduced   590 angular points to   590 for atom    5.
 IPart=  5 Atom number   5 atomic number  6 has       23114 grid points.
 IPart=  5 Atom   5 batch   12 overlaps   10 atoms,   114 shells and    10 DB shells.   NGrid=       590
 Symmetry reduced   590 angular points to   590 for atom    5.
 Pruned (  99, 590) grid will be used in numerical quadrature.
 IPart= 12 Atom number   5 atomic number  6 has       23114 grid points.
 IPart= 12 Atom   5 batch   13 overlaps   10 atoms,   114 shells and    10 DB shells.   NGrid=       604
 Symmetry reduced   302 angular points to   302 for atom    5.
 Pruned (  99, 590) grid will be used in numerical quadrature.
 IPart= 13 Atom number   5 atomic number  6 has       23114 grid points.
 IPart= 13 Atom   5 batch   14 overlaps   10 atoms,   112 shells and    10 DB shells.   NGrid=       604
 Symmetry reduced   302 angular points to   302 for atom    5.
 Pruned (  99, 590) grid will be used in numerical quadrature.
 IPart=  6 Atom number   5 atomic number  6 has       23114 grid points.
 IPart=  6 Atom   5 batch   15 overlaps   10 atoms,   108 shells and    10 DB shells.   NGrid=       604
 Symmetry reduced   302 angular points to   302 for atom    5.
 IPart=  5 Atom   5 batch   16 overlaps   10 atoms,    99 shells and    10 DB shells.   NGrid=       604
 Symmetry reduced   302 angular points to   302 for atom    5.
 IPart= 12 Atom   5 batch   17 overlaps   10 atoms,    87 shells and    10 DB shells.   NGrid=       604
 Pruned (  99, 590) grid will be used in numerical quadrature.
 IPart= 14 Atom number   5 atomic number  6 has       23114 grid points.
 IPart= 14 Atom   5 batch   18 overlaps   10 atoms,    67 shells and    10 DB shells.   NGrid=       604
 Symmetry reduced   302 angular points to   302 for atom    5.
 IPart= 14 Atom   5 batch   19 overlaps   10 atoms,    52 shells and    10 DB shells.   NGrid=       604
 IPart= 12 Atom   5 batch   20 overlaps   10 atoms,    31 shells and     7 DB shells.   NGrid=       604
 IPart=  5 Atom   5 batch   21 overlaps   10 atoms,    14 shells and     0 DB shells.   NGrid=       604
 IPart= 12 Atom   5 batch   22 overlaps   10 atoms,     7 shells and     0 DB shells.   NGrid=       604
 Pruned (  99, 590) grid will be used in numerical quadrature.
 IPart= 14 Atom number   6 atomic number  1 has       23164 grid points.
 IPart= 14 Atom   6 batch    1 overlaps   10 atoms,   105 shells and    10 DB shells.   NGrid=      2838
 Symmetry reduced    86 angular points to    86 for atom    6.
 Pruned (  99, 590) grid will be used in numerical quadrature.
 IPart=  6 Atom number   6 atomic number  1 has       23164 grid points.
 IPart=  6 Atom   6 batch    2 overlaps   10 atoms,   107 shells and    10 DB shells.   NGrid=      1552
 Symmetry reduced   194 angular points to   194 for atom    6.
 Pruned (  99, 590) grid will be used in numerical quadrature.
 IPart=  5 Atom number   6 atomic number  1 has       23164 grid points.
 IPart=  5 Atom   6 batch    3 overlaps   10 atoms,   110 shells and    10 DB shells.   NGrid=      2416
 Pruned (  99, 590) grid will be used in numerical quadrature.
 Symmetry reduced   302 angular points to   302 for atom    6.
 IPart= 12 Atom number   6 atomic number  1 has       23164 grid points.
 IPart= 12 Atom   6 batch    4 overlaps   10 atoms,   111 shells and    10 DB shells.   NGrid=      1180
 Symmetry reduced   590 angular points to   590 for atom    6.
 Pruned (  99, 590) grid will be used in numerical quadrature.
 IPart= 13 Atom number   6 atomic number  1 has       23164 grid points.
 IPart= 13 Atom   6 batch    5 overlaps   10 atoms,   111 shells and    10 DB shells.   NGrid=      1180
 Symmetry reduced   590 angular points to   590 for atom    6.
[...]
 3190 Fit      -0.164310
 3191 Fit      -0.167863
 3192 Fit      -0.171972
 3193 Fit      -0.150967
 3194 Fit      -0.152302
 3195 Fit      -0.153552
 3196 Fit      -0.155310
 3197 Fit      -0.157314
 3198 Fit      -0.159770
 3199 Fit      -0.162681
 3200 Fit      -0.165949
 3201 Fit      -0.150706
 3202 Fit      -0.152177
 3203 Fit      -0.153661
 3204 Fit      -0.155697
 3205 Fit      -0.158085
 3206 Fit      -0.160879
 3207 Fit      -0.163603
 3208 Fit      -0.151469
 3209 Fit      -0.152273
 3210 Fit      -0.153779
 3211 Fit      -0.156151
 3212 Fit      -0.158907
 3213 Fit      -0.154209
 3214 Fit      -0.156766
 3215 Fit      -0.131606
 3216 Fit      -0.136759
 3217 Fit      -0.106804
 3218 Fit      -0.105592
 3219 Fit      -0.143352
 3220 Fit      -0.132939
 3221 Fit      -0.125123
 3222 Fit      -0.119208
 3223 Fit      -0.114700
 3224 Fit      -0.111252
 3225 Fit      -0.108637
 3226 Fit      -0.106721
 3227 Fit      -0.105437
 3228 Fit      -0.143352
 3229 Fit      -0.132939
 3230 Fit      -0.125123
 3231 Fit      -0.119208
 3232 Fit      -0.114700
 3233 Fit      -0.111252
 3234 Fit      -0.108637
 3235 Fit      -0.106721
 3236 Fit      -0.105437
 3237 Fit      -0.106804
 3238 Fit      -0.105592
 3239 Fit      -0.131606
 3240 Fit      -0.136759
 3241 Fit      -0.113549
 3242 Fit      -0.109335
 3243 Fit      -0.109281
 3244 Fit      -0.106136
 3245 Fit      -0.104199
 3246 Fit      -0.107463
 3247 Fit      -0.104457
 3248 Fit      -0.102461
 3249 Fit      -0.101395
 3250 Fit      -0.101125
 3251 Fit      -0.104650
 3252 Fit      -0.102173
 3253 Fit      -0.100505
 3254 Fit      -0.099566
 3255 Fit      -0.099241
 3256 Fit      -0.099424
 3257 Fit      -0.104729
 3258 Fit      -0.097589
 3259 Fit      -0.097866
 3260 Fit      -0.098503
 3261 Fit      -0.105166
 3262 Fit      -0.097165
 3263 Fit      -0.098120
 3264 Fit      -0.096727
 3265 Fit      -0.097903
 3266 Fit      -0.099461
 3267 Fit      -0.095556
 3268 Fit      -0.096618
 3269 Fit      -0.097986
 3270 Fit      -0.099772
 3271 Fit      -0.102099
 3272 Fit      -0.095403
 3273 Fit      -0.096576
 3274 Fit      -0.098077
 3275 Fit      -0.100023
 3276 Fit      -0.102538
 3277 Fit      -0.105766
 3278 Fit      -0.131825
 3279 Fit      -0.144071
 3280 Fit      -0.095118
 3281 Fit      -0.096322
 3282 Fit      -0.097860
 3283 Fit      -0.099858
 3284 Fit      -0.102448
 3285 Fit      -0.105777
 3286 Fit      -0.110041
 3287 Fit      -0.115511
 3288 Fit      -0.122582
 3289 Fit      -0.131825
 3290 Fit      -0.144071
 3291 Fit      -0.095118
 3292 Fit      -0.096322
 3293 Fit      -0.097860
 3294 Fit      -0.099858
 3295 Fit      -0.102448
 3296 Fit      -0.105777
 3297 Fit      -0.110041
 3298 Fit      -0.115511
 3299 Fit      -0.122582
 3300 Fit      -0.095403
 3301 Fit      -0.096576
 3302 Fit      -0.098077
 3303 Fit      -0.100023
 3304 Fit      -0.102538
 3305 Fit      -0.105766
 3306 Fit      -0.095556
 3307 Fit      -0.096618
 3308 Fit      -0.097986
 3309 Fit      -0.099772
 3310 Fit      -0.102099
 3311 Fit      -0.096727
 3312 Fit      -0.097903
 3313 Fit      -0.099461
 3314 Fit      -0.105166
 3315 Fit      -0.097165
 3316 Fit      -0.098120
 3317 Fit      -0.104729
 3318 Fit      -0.097589
 3319 Fit      -0.097866
 3320 Fit      -0.098503
 3321 Fit      -0.104650
 3322 Fit      -0.102173
 3323 Fit      -0.100505
 3324 Fit      -0.099566
 3325 Fit      -0.099241
 3326 Fit      -0.099424
 3327 Fit      -0.107463
 3328 Fit      -0.104457
 3329 Fit      -0.102461
 3330 Fit      -0.101395
 3331 Fit      -0.101125
 3332 Fit      -0.109281
 3333 Fit      -0.106136
 3334 Fit      -0.104199
 3335 Fit      -0.113549
 3336 Fit      -0.109335
 3337 Fit      -0.146014
 3338 Fit      -0.148559
 3339 Fit      -0.150805
 3340 Fit      -0.149509
 3341 Fit      -0.145006
 3342 Fit      -0.141781
 3343 Fit      -0.143887
 3344 Fit      -0.152784
 3345 Fit      -0.155248
 3346 Fit      -0.156054
 3347 Fit      -0.155979
 3348 Fit      -0.154529
 3349 Fit      -0.150783
 3350 Fit      -0.145342
 3351 Fit      -0.139133
 3352 Fit      -0.142906
 3353 Fit      -0.148207
 3354 Fit      -0.161571
 3355 Fit      -0.161650
 3356 Fit      -0.161902
 3357 Fit      -0.162071
 3358 Fit      -0.153079
 3359 Fit      -0.142771
 3360 Fit      -0.148613
 3361 Fit      -0.167823
 3362 Fit      -0.167462
 3363 Fit      -0.167957
 3364 Fit      -0.173322
 3365 Fit      -0.173829
 3366 Fit      -0.179054
 3367 Fit      -0.179054
 3368 Fit      -0.173322
 3369 Fit      -0.173829
 3370 Fit      -0.167823
 3371 Fit      -0.167462
 3372 Fit      -0.167957
 3373 Fit      -0.161571
 3374 Fit      -0.161650
 3375 Fit      -0.161902
 3376 Fit      -0.162071
 3377 Fit      -0.153079
 3378 Fit      -0.142771
 3379 Fit      -0.148613
 3380 Fit      -0.152784
 3381 Fit      -0.155248
 3382 Fit      -0.156054
 3383 Fit      -0.155979
 3384 Fit      -0.154529
 3385 Fit      -0.150783
 3386 Fit      -0.145342
 3387 Fit      -0.139133
 3388 Fit      -0.142906
 3389 Fit      -0.148207
 3390 Fit      -0.148559
 3391 Fit      -0.150805
 3392 Fit      -0.149509
 3393 Fit      -0.145006
 3394 Fit      -0.141781
 3395 Fit      -0.143887
 3396 Fit      -0.146014
 3397 Fit      -0.115250
 3398 Fit      -0.118719
 3399 Fit      -0.121337
 3400 Fit      -0.118149
 3401 Fit      -0.112630
 3402 Fit      -0.110579
 3403 Fit      -0.113485
 3404 Fit      -0.123140
 3405 Fit      -0.127419
 3406 Fit      -0.129116
 3407 Fit      -0.127329
 3408 Fit      -0.122355
 3409 Fit      -0.116110
 3410 Fit      -0.110793
 3411 Fit      -0.107671
 3412 Fit      -0.107115
 3413 Fit      -0.108968
 3414 Fit      -0.112747
 3415 Fit      -0.117773
 3416 Fit      -0.133733
 3417 Fit      -0.137316
 3418 Fit      -0.138933
 3419 Fit      -0.138046
 3420 Fit      -0.134230
 3421 Fit      -0.128105
 3422 Fit      -0.121147
 3423 Fit      -0.114737
 3424 Fit      -0.109690
 3425 Fit      -0.106323
 3426 Fit      -0.104683
 3427 Fit      -0.104695
 3428 Fit      -0.106230
 3429 Fit      -0.109094
 3430 Fit      -0.113006
 3431 Fit      -0.117691
 3432 Fit      -0.123015
 3433 Fit      -0.147558
 3434 Fit      -0.141039
 3435 Fit      -0.132917
 3436 Fit      -0.124724
 3437 Fit      -0.117474
 3438 Fit      -0.111633
 3439 Fit      -0.107323
 3440 Fit      -0.104503
 3441 Fit      -0.103078
 3442 Fit      -0.102957
 3443 Fit      -0.104063
 3444 Fit      -0.106316
 3445 Fit      -0.109580
 3446 Fit      -0.145490
 3447 Fit      -0.135077
 3448 Fit      -0.125765
 3449 Fit      -0.118043
 3450 Fit      -0.111989
 3451 Fit      -0.107504
 3452 Fit      -0.104437
 3453 Fit      -0.102647
 3454 Fit      -0.102027
 3455 Fit      -0.102509
 3456 Fit      -0.104067
 3457 Fit      -0.106683
 3458 Fit      -0.148915
 3459 Fit      -0.136950
 3460 Fit      -0.127015
 3461 Fit      -0.119084
 3462 Fit      -0.112950
 3463 Fit      -0.108374
 3464 Fit      -0.105142
 3465 Fit      -0.103082
 3466 Fit      -0.102074
 3467 Fit      -0.102047
 3468 Fit      -0.102981
 3469 Fit      -0.104901
 3470 Fit      -0.141190
 3471 Fit      -0.129947
 3472 Fit      -0.121259
 3473 Fit      -0.114665
 3474 Fit      -0.109781
 3475 Fit      -0.106313
 3476 Fit      -0.104045
 3477 Fit      -0.102830
 3478 Fit      -0.102584
 3479 Fit      -0.103285
 3480 Fit      -0.104972
 3481 Fit      -0.145237
 3482 Fit      -0.133040
 3483 Fit      -0.123830
 3484 Fit      -0.116924
 3485 Fit      -0.111824
 3486 Fit      -0.108175
 3487 Fit      -0.105729
 3488 Fit      -0.104319
 3489 Fit      -0.103848
 3490 Fit      -0.104280
 3491 Fit      -0.143137
 3492 Fit      -0.131649
 3493 Fit      -0.123146
 3494 Fit      -0.116871
 3495 Fit      -0.112314
 3496 Fit      -0.109126
 3497 Fit      -0.107072
 3498 Fit      -0.106003
 3499 Fit      -0.105841
 3500 Fit      -0.131307
 3501 Fit      -0.123216
 3502 Fit      -0.117394
 3503 Fit      -0.113297
 3504 Fit      -0.110570
 3505 Fit      -0.131307
 3506 Fit      -0.123216
 3507 Fit      -0.117394
 3508 Fit      -0.113297
 3509 Fit      -0.110570
 3510 Fit      -0.143137
 3511 Fit      -0.131649
 3512 Fit      -0.123146
 3513 Fit      -0.116871
 3514 Fit      -0.112314
 3515 Fit      -0.109126
 3516 Fit      -0.107072
 3517 Fit      -0.106003
 3518 Fit      -0.105841
 3519 Fit      -0.145237
 3520 Fit      -0.133040
 3521 Fit      -0.123830
 3522 Fit      -0.116924
 3523 Fit      -0.111824
 3524 Fit      -0.108175
 3525 Fit      -0.105729
 3526 Fit      -0.104319
 3527 Fit      -0.103848
 3528 Fit      -0.104280
 3529 Fit      -0.141190
 3530 Fit      -0.129947
 3531 Fit      -0.121259
 3532 Fit      -0.114665
 3533 Fit      -0.109781
 3534 Fit      -0.106313
 3535 Fit      -0.104045
 3536 Fit      -0.102830
 3537 Fit      -0.102584
 3538 Fit      -0.103285
 3539 Fit      -0.104972
 3540 Fit      -0.148915
 3541 Fit      -0.136950
 3542 Fit      -0.127015
 3543 Fit      -0.119084
 3544 Fit      -0.112950
 3545 Fit      -0.108374
 3546 Fit      -0.105142
 3547 Fit      -0.103082
 3548 Fit      -0.102074
 3549 Fit      -0.102047
 3550 Fit      -0.102981
 3551 Fit      -0.104901
 3552 Fit      -0.145490
 3553 Fit      -0.135077
 3554 Fit      -0.125765
 3555 Fit      -0.118043
 3556 Fit      -0.111989
 3557 Fit      -0.107504
 3558 Fit      -0.104437
 3559 Fit      -0.102647
 3560 Fit      -0.102027
 3561 Fit      -0.102509
 3562 Fit      -0.104067
 3563 Fit      -0.106683
 3564 Fit      -0.147558
 3565 Fit      -0.141039
 3566 Fit      -0.132917
 3567 Fit      -0.124724
 3568 Fit      -0.117474
 3569 Fit      -0.111633
 3570 Fit      -0.107323
 3571 Fit      -0.104503
 3572 Fit      -0.103078
 3573 Fit      -0.102957
 3574 Fit      -0.104063
 3575 Fit      -0.106316
 3576 Fit      -0.109580
 3577 Fit      -0.133733
 3578 Fit      -0.137316
 3579 Fit      -0.138933
 3580 Fit      -0.138046
 3581 Fit      -0.134230
 3582 Fit      -0.128105
 3583 Fit      -0.121147
 3584 Fit      -0.114737
 3585 Fit      -0.109690
 3586 Fit      -0.106323
 3587 Fit      -0.104683
 3588 Fit      -0.104695
 3589 Fit      -0.106230
 3590 Fit      -0.109094
 3591 Fit      -0.113006
 3592 Fit      -0.117691
 3593 Fit      -0.123015
 3594 Fit      -0.123140
 3595 Fit      -0.127419
 3596 Fit      -0.129116
 3597 Fit      -0.127329
 3598 Fit      -0.122355
 3599 Fit      -0.116110
 3600 Fit      -0.110793
 3601 Fit      -0.107671
 3602 Fit      -0.107115
 3603 Fit      -0.108968
 3604 Fit      -0.112747
 3605 Fit      -0.117773
 3606 Fit      -0.118719
 3607 Fit      -0.121337
 3608 Fit      -0.118149
 3609 Fit      -0.112630
 3610 Fit      -0.110579
 3611 Fit      -0.113485
 3612 Fit      -0.115250
 3613 Fit      -0.130891
 3614 Fit      -0.143231
 3615 Fit      -0.115327
 3616 Fit      -0.121883
 3617 Fit      -0.127008
 3618 Fit      -0.138027
 3619 Fit      -0.105141
 3620 Fit      -0.108236
 3621 Fit      -0.112676
 3622 Fit      -0.118780
 3623 Fit      -0.123247
 3624 Fit      -0.133358
 3625 Fit      -0.146644
 3626 Fit      -0.100189
 3627 Fit      -0.101055
 3628 Fit      -0.102855
 3629 Fit      -0.105733
 3630 Fit      -0.109889
 3631 Fit      -0.115600
 3632 Fit      -0.119780
 3633 Fit      -0.129055
 3634 Fit      -0.140971
 3635 Fit      -0.098772
 3636 Fit      -0.099400
 3637 Fit      -0.100943
 3638 Fit      -0.103541
 3639 Fit      -0.107375
 3640 Fit      -0.112684
 3641 Fit      -0.116721
 3642 Fit      -0.124967
 3643 Fit      -0.135235
 3644 Fit      -0.147510
 3645 Fit      -0.098381
 3646 Fit      -0.098021
 3647 Fit      -0.098424
 3648 Fit      -0.099708
 3649 Fit      -0.102006
 3650 Fit      -0.105473
 3651 Fit      -0.110303
 3652 Fit      -0.114148
 3653 Fit      -0.121810
 3654 Fit      -0.131073
 3655 Fit      -0.141467
 3656 Fit      -0.098998
 3657 Fit      -0.098104
 3658 Fit      -0.097986
 3659 Fit      -0.098782
 3660 Fit      -0.100635
 3661 Fit      -0.103701
 3662 Fit      -0.108149
 3663 Fit      -0.112111
 3664 Fit      -0.119035
 3665 Fit      -0.127038
 3666 Fit      -0.135208
 3667 Fit      -0.141970
 3668 Fit      -0.145535
 3669 Fit      -0.145077
 3670 Fit      -0.100859
 3671 Fit      -0.099315
 3672 Fit      -0.098571
 3673 Fit      -0.098774
 3674 Fit      -0.100081
 3675 Fit      -0.102653
 3676 Fit      -0.106632
 3677 Fit      -0.110637
 3678 Fit      -0.116990
 3679 Fit      -0.123811
 3680 Fit      -0.129601
 3681 Fit      -0.132675
 3682 Fit      -0.132268
 3683 Fit      -0.129060
 3684 Fit      -0.124286
 3685 Fit      -0.118964
 3686 Fit      -0.113820
 3687 Fit      -0.109283
 3688 Fit      -0.105550
 3689 Fit      -0.102691
 3690 Fit      -0.100766
 3691 Fit      -0.099907
 3692 Fit      -0.100302
 3693 Fit      -0.102147
 3694 Fit      -0.105590
 3695 Fit      -0.109742
 3696 Fit      -0.115743
 3697 Fit      -0.120982
 3698 Fit      -0.123080
 3699 Fit      -0.121316
 3700 Fit      -0.116998
 3701 Fit      -0.111905
 3702 Fit      -0.107331
 3703 Fit      -0.103978
 3704 Fit      -0.102249
 3705 Fit      -0.102504
 3706 Fit      -0.105028
 3707 Fit      -0.109428
 3708 Fit      -0.114496
 3709 Fit      -0.114891
 3710 Fit      -0.110523
 3711 Fit      -0.106259
 3712 Fit      -0.105601
 3713 Fit      -0.109692
 3714 Fit      -0.109692
 3715 Fit      -0.109428
 3716 Fit      -0.114496
 3717 Fit      -0.114891
 3718 Fit      -0.110523
 3719 Fit      -0.106259
 3720 Fit      -0.105601
 3721 Fit      -0.109742
 3722 Fit      -0.115743
 3723 Fit      -0.120982
 3724 Fit      -0.123080
 3725 Fit      -0.121316
 3726 Fit      -0.116998
 3727 Fit      -0.111905
 3728 Fit      -0.107331
 3729 Fit      -0.103978
 3730 Fit      -0.102249
 3731 Fit      -0.102504
 3732 Fit      -0.105028
 3733 Fit      -0.110637
 3734 Fit      -0.116990
 3735 Fit      -0.123811
 3736 Fit      -0.129601
 3737 Fit      -0.132675
 3738 Fit      -0.132268
 3739 Fit      -0.129060
 3740 Fit      -0.124286
 3741 Fit      -0.118964
 3742 Fit      -0.113820
 3743 Fit      -0.109283
 3744 Fit      -0.105550
 3745 Fit      -0.102691
 3746 Fit      -0.100766
 3747 Fit      -0.099907
 3748 Fit      -0.100302
 3749 Fit      -0.102147
 3750 Fit      -0.105590
 3751 Fit      -0.112111
 3752 Fit      -0.119035
 3753 Fit      -0.127038
 3754 Fit      -0.135208
 3755 Fit      -0.141970
 3756 Fit      -0.145535
 3757 Fit      -0.145077
 3758 Fit      -0.100859
 3759 Fit      -0.099315
 3760 Fit      -0.098571
 3761 Fit      -0.098774
 3762 Fit      -0.100081
 3763 Fit      -0.102653
 3764 Fit      -0.106632
 3765 Fit      -0.114148
 3766 Fit      -0.121810
 3767 Fit      -0.131073
 3768 Fit      -0.141467
 3769 Fit      -0.098998
 3770 Fit      -0.098104
 3771 Fit      -0.097986
 3772 Fit      -0.098782
 3773 Fit      -0.100635
 3774 Fit      -0.103701
 3775 Fit      -0.108149
 3776 Fit      -0.116721
 3777 Fit      -0.124967
 3778 Fit      -0.135235
 3779 Fit      -0.147510
 3780 Fit      -0.098381
 3781 Fit      -0.098021
 3782 Fit      -0.098424
 3783 Fit      -0.099708
 3784 Fit      -0.102006
 3785 Fit      -0.105473
 3786 Fit      -0.110303
 3787 Fit      -0.119780
 3788 Fit      -0.129055
 3789 Fit      -0.140971
 3790 Fit      -0.098772
 3791 Fit      -0.099400
 3792 Fit      -0.100943
 3793 Fit      -0.103541
 3794 Fit      -0.107375
 3795 Fit      -0.112684
 3796 Fit      -0.123247
 3797 Fit      -0.133358
 3798 Fit      -0.146644
 3799 Fit      -0.100189
 3800 Fit      -0.101055
 3801 Fit      -0.102855
 3802 Fit      -0.105733
 3803 Fit      -0.109889
 3804 Fit      -0.115600
 3805 Fit      -0.127008
 3806 Fit      -0.138027
 3807 Fit      -0.105141
 3808 Fit      -0.108236
 3809 Fit      -0.112676
 3810 Fit      -0.118780
 3811 Fit      -0.130891
 3812 Fit      -0.143231
 3813 Fit      -0.115327
 3814 Fit      -0.121883
 3815 Fit      -0.098425
 3816 Fit      -0.096586
 3817 Fit      -0.096451
 3818 Fit      -0.103639
 3819 Fit      -0.098924
 3820 Fit      -0.095559
 3821 Fit      -0.093533
 3822 Fit      -0.092802
 3823 Fit      -0.093322
 3824 Fit      -0.095058
 3825 Fit      -0.103246
 3826 Fit      -0.098189
 3827 Fit      -0.094406
 3828 Fit      -0.091826
 3829 Fit      -0.090369
 3830 Fit      -0.089974
 3831 Fit      -0.090600
 3832 Fit      -0.092221
 3833 Fit      -0.094826
 3834 Fit      -0.103172
 3835 Fit      -0.097918
 3836 Fit      -0.093885
 3837 Fit      -0.090949
 3838 Fit      -0.089007
 3839 Fit      -0.087984
 3840 Fit      -0.087829
 3841 Fit      -0.088507
 3842 Fit      -0.089999
 3843 Fit      -0.092304
 3844 Fit      -0.095434
 3845 Fit      -0.103124
 3846 Fit      -0.097581
 3847 Fit      -0.093323
 3848 Fit      -0.090171
 3849 Fit      -0.087995
 3850 Fit      -0.086706
 3851 Fit      -0.086243
 3852 Fit      -0.086564
 3853 Fit      -0.087647
 3854 Fit      -0.089480
 3855 Fit      -0.092073
 3856 Fit      -0.103208
 3857 Fit      -0.097576
 3858 Fit      -0.093227
 3859 Fit      -0.089954
 3860 Fit      -0.087618
 3861 Fit      -0.086122
 3862 Fit      -0.085401
 3863 Fit      -0.085411
 3864 Fit      -0.086124
 3865 Fit      -0.087525
 3866 Fit      -0.089613
 3867 Fit      -0.092402
 3868 Fit      -0.100284
 3869 Fit      -0.095322
 3870 Fit      -0.091510
 3871 Fit      -0.088673
 3872 Fit      -0.086695
 3873 Fit      -0.085495
 3874 Fit      -0.085021
 3875 Fit      -0.085234
 3876 Fit      -0.086112
 3877 Fit      -0.087644
 3878 Fit      -0.089832
 3879 Fit      -0.092695
 3880 Fit      -0.103208
 3881 Fit      -0.097576
 3882 Fit      -0.093227
 3883 Fit      -0.089954
 3884 Fit      -0.087618
 3885 Fit      -0.086122
 3886 Fit      -0.085401
 3887 Fit      -0.085411
 3888 Fit      -0.086124
 3889 Fit      -0.087525
 3890 Fit      -0.089613
 3891 Fit      -0.092402
 3892 Fit      -0.103124
 3893 Fit      -0.097581
 3894 Fit      -0.093323
 3895 Fit      -0.090171
 3896 Fit      -0.087995
 3897 Fit      -0.086706
 3898 Fit      -0.086243
 3899 Fit      -0.086564
 3900 Fit      -0.087647
 3901 Fit      -0.089480
 3902 Fit      -0.092073
 3903 Fit      -0.103172
 3904 Fit      -0.097918
 3905 Fit      -0.093885
 3906 Fit      -0.090949
 3907 Fit      -0.089007
 3908 Fit      -0.087984
 3909 Fit      -0.087829
 3910 Fit      -0.088507
 3911 Fit      -0.089999
 3912 Fit      -0.092304
 3913 Fit      -0.095434
 3914 Fit      -0.103246
 3915 Fit      -0.098189
 3916 Fit      -0.094406
 3917 Fit      -0.091826
 3918 Fit      -0.090369
 3919 Fit      -0.089974
 3920 Fit      -0.090600
 3921 Fit      -0.092221
 3922 Fit      -0.094826
 3923 Fit      -0.103639
 3924 Fit      -0.098924
 3925 Fit      -0.095559
 3926 Fit      -0.093533
 3927 Fit      -0.092802
 3928 Fit      -0.093322
 3929 Fit      -0.095058
 3930 Fit      -0.098425
 3931 Fit      -0.096586
 3932 Fit      -0.096451
 -----------------------------------------------------------------
 Leave Link  602 at Tue Sep 30 16:59:59 2025, MaxMem=  4294967296 cpu:               2.5 elap:               0.2
 (Enter /software/sse/easybuild/prefix/software/Gaussian/16.C.01-avx2-nsc1/g16/l9999.exe)

 Test job not archived.
 1\1\NSC-N1294\FOpt\RHF\Aug-CC-pVTZ\C3H5O2(1-)\X_DAVVA\30-Sep-2025\0\\#
 P HF/aug-cc-pvtz Opt=tight Pop=(MK,Hirshfeld) iop(6/33=2) iop(6/42=6) 
 maxdisk=128GB\\propanoate\\-1,1\O,-0.7875537851,1.6580475605,0.\O,1.23
 09348987,0.73194661,0.\C,-0.6759865018,-0.6857947887,0.\C,0.2703438951
 ,-1.8789551594,0.\C,-0.0000024536,0.7095284895,0.\H,-1.3314992979,-0.7
 227659486,0.866194936\H,-1.3314992979,-0.7227659486,-0.866194936\H,0.9
 152782955,-1.861870518,-0.8703125831\H,0.9152782955,-1.861870518,0.870
 3125831\H,-0.2807240485,-2.8193497786,0.\\Version=ES64L-G16RevC.01\Sta
 te=1-A'\HF=-266.3792795\RMSD=3.964e-09\RMSF=1.264e-06\Dipole=-0.485332
 4,-2.2385452,0.\Quadrupole=-1.127311,-4.9559913,6.0833023,1.2384284,0.
 ,0.\PG=CS [SG(C3H1O2),X(H4)]\\@


 ONLY A FOOL KNOWS EVERYTHING.

               -- THE CHEMIST ANALYST, SEPTEMBER 1946
 Job cpu time:       0 days  0 hours 15 minutes  6.4 seconds.
 Elapsed time:       0 days  0 hours  1 minutes  6.4 seconds.
 File lengths (MBytes):  RWF=     59 Int=      0 D2E=      0 Chk=     16 Scr=      1
 Normal termination of Gaussian 16 at Tue Sep 30 16:59:59 2025.
