 Entering Gaussian System, Link 0=/software/sse/easybuild/prefix/software/Gaussian/16.C.01-avx2-nsc1/g16/g16.orig
 Input=propanoate.wrap
 Output=propanoate.log
 Initial command:
 /software/sse/easybuild/prefix/software/Gaussian/16.C.01-avx2-nsc1/g16/l1.exe "/scratch/local/Gau-847952.inp" -scrdir="/scratch/local/"
 Entering Link 1 = /software/sse/easybuild/prefix/software/Gaussian/16.C.01-avx2-nsc1/g16/l1.exe PID=    847960.
  
 Copyright (c) 1988-2019, Gaussian, Inc.  All Rights Reserved.
  
 This is part of the Gaussian(R) 16 program.  It is based on
 the Gaussian(R) 09 system (copyright 2009, Gaussian, Inc.),
 the Gaussian(R) 03 system (copyright 2003, Gaussian, Inc.),
 the Gaussian(R) 98 system (copyright 1998, Gaussian, Inc.),
 the Gaussian(R) 94 system (copyright 1995, Gaussian, Inc.),
 the Gaussian 92(TM) system (copyright 1992, Gaussian, Inc.),
 the Gaussian 90(TM) system (copyright 1990, Gaussian, Inc.),
 the Gaussian 88(TM) system (copyright 1988, Gaussian, Inc.),
 the Gaussian 86(TM) system (copyright 1986, Carnegie Mellon
 University), and the Gaussian 82(TM) system (copyright 1983,
 Carnegie Mellon University). Gaussian is a federally registered
 trademark of Gaussian, Inc.
  
 This software contains proprietary and confidential information,
 including trade secrets, belonging to Gaussian, Inc.
  
 This software is provided under written license and may be
 used, copied, transmitted, or stored only in accord with that
 written license.
  
 The following legend is applicable only to US Government
 contracts under FAR:
  
                    RESTRICTED RIGHTS LEGEND
  
 Use, reproduction and disclosure by the US Government is
 subject to restrictions as set forth in subparagraphs (a)
 and (c) of the Commercial Computer Software - Restricted
 Rights clause in FAR 52.227-19.
  
 Gaussian, Inc.
 340 Quinnipiac St., Bldg. 40, Wallingford CT 06492
  
  
 ---------------------------------------------------------------
 Warning -- This program may not be used in any manner that
 competes with the business of Gaussian, Inc. or will provide
 assistance to any competitor of Gaussian, Inc.  The licensee
 of this program is prohibited from giving any competitor of
 Gaussian, Inc. access to this program.  By using this program,
 the user acknowledges that Gaussian, Inc. is engaged in the
 business of creating and licensing software in the field of
 computational chemistry and represents and warrants to the
 licensee that it is not a competitor of Gaussian, Inc. and that
 it will not use this program in any manner prohibited above.
 ---------------------------------------------------------------
  

 Cite this work as:
 Gaussian 16, Revision C.01,
 M. J. Frisch, G. W. Trucks, H. B. Schlegel, G. E. Scuseria, 
 M. A. Robb, J. R. Cheeseman, G. Scalmani, V. Barone, 
 G. A. Petersson, H. Nakatsuji, X. Li, M. Caricato, A. V. Marenich, 
 J. Bloino, B. G. Janesko, R. Gomperts, B. Mennucci, H. P. Hratchian, 
 J. V. Ortiz, A. F. Izmaylov, J. L. Sonnenberg, D. Williams-Young, 
 F. Ding, F. Lipparini, F. Egidi, J. Goings, B. Peng, A. Petrone, 
 T. Henderson, D. Ranasinghe, V. G. Zakrzewski, J. Gao, N. Rega, 
 G. Zheng, W. Liang, M. Hada, M. Ehara, K. Toyota, R. Fukuda, 
 J. Hasegawa, M. Ishida, T. Nakajima, Y. Honda, O. Kitao, H. Nakai, 
 T. Vreven, K. Throssell, J. A. Montgomery, Jr., J. E. Peralta, 
 F. Ogliaro, M. J. Bearpark, J. J. Heyd, E. N. Brothers, K. N. Kudin, 
 V. N. Staroverov, T. A. Keith, R. Kobayashi, J. Normand, 
 K. Raghavachari, A. P. Rendell, J. C. Burant, S. S. Iyengar, 
 J. Tomasi, M. Cossi, J. M. Millam, M. Klene, C. Adamo, R. Cammi, 
 J. W. Ochterski, R. L. Martin, K. Morokuma, O. Farkas, 
 J. B. Foresman, and D. J. Fox, Gaussian, Inc., Wallingford CT, 2019.
 
 ******************************************
 Gaussian 16:  ES64L-G16RevC.01  3-Jul-2019
                28-Sep-2025 
 ******************************************
 %mem=12000MB
 %nprocshared=8
 Will use up to    8 processors via shared memory.
 %chk=water19.chk
 ----------------------------------------------------------------------
 #P HF/aug-cc-pvtz Opt=(Redundant, calcall, verytight) symm=(loose,foll
 ow) Pop=(MK,Hirshfeld,ReadRadii) iop(6/33=2) iop(6/42=6) Polar Freq ma
 xdisk=128GB
 ----------------------------------------------------------------------
 1/7=1,10=4,18=20,19=15,38=1/1,3;
 2/9=110,12=2,17=4,18=3,40=1/2;
 3/5=16,6=1,7=10,11=9,25=1,30=1,71=2,140=1/1,2,3;
 4//1;
 5/5=2,38=5,98=1/2;
 8/6=4,10=90,11=11/1;
 11/6=1,8=1,9=11,15=111,16=1/1,2,10;
 10/6=1/2;
 6/7=2,8=2,9=2,10=2,15=8,18=1,20=101,28=1,33=2,42=6,79=1/1,2;
 7/10=1,25=1/1,2,3,16;
 1/7=1,10=4,18=20,19=15/3(3);
 2/9=110,15=5/2;
 7/8=1,9=1,25=1,44=-1/16;
 99//99;
 2/9=110,15=5/2;
 3/5=16,6=1,7=10,11=9,25=1,30=1,71=2,140=1/1,2,3;
 4/5=5,16=3,69=1/1;
 5/5=2,38=5,98=1/2;
 8/6=4,10=90,11=11/1;
 11/6=1,8=1,9=11,15=111,16=1/1,2,10;
 10/6=1/2;
 7/10=1,25=1/1,2,3,16;
 1/7=1,10=4,18=20,19=15/3(-8);
 2/9=110,15=5/2;
 6/7=2,8=2,9=2,10=2,15=8,18=1,19=2,20=101,28=1,33=2,42=6,79=1/1,2;
 7/8=1,9=1,25=1,44=-1/16;
 99//99;
 Leave Link    1 at Sun Sep 28 20:46:02 2025, MaxMem=  1572864000 cpu:               0.6 elap:               0.1
 (Enter /software/sse/easybuild/prefix/software/Gaussian/16.C.01-avx2-nsc1/g16/l101.exe)
 ----------
 propanoate
 ----------
 Symbolic Z-matrix:
 Charge = -1 Multiplicity = 1
 O                     1.6728   -0.6109    0.0122 
 O                     0.4164    1.2959   -0.006 
 C                    -0.7023   -0.7712   -0.0191 
 C                    -1.9811    0.0429    0.0151 
 C                     0.5942    0.0432   -0.0022 
 H                    -0.6956   -1.3931   -0.9219 
 H                    -0.6849   -1.4477    0.8435 
 H                    -2.033     0.6607    0.9177 
 H                    -2.0532    0.7041   -0.8547 
 H                    -2.8525   -0.6195    0.0083 
 
 ITRead=  0  0  0  0  0  0  0  0  0  0
 MicOpt= -1 -1 -1 -1 -1 -1 -1 -1 -1 -1
 NAtoms=     10 NQM=       10 NQMF=       0 NMMI=      0 NMMIF=      0
                NMic=       0 NMicF=      0.
                    Isotopes and Nuclear Properties:
 (Nuclear quadrupole moments (NQMom) in fm**2, nuclear magnetic moments (NMagM)
  in nuclear magnetons)

  Atom         1           2           3           4           5           6           7           8           9          10
 IAtWgt=          16          16          12          12          12           1           1           1           1           1
 AtmWgt=  15.9949146  15.9949146  12.0000000  12.0000000  12.0000000   1.0078250   1.0078250   1.0078250   1.0078250   1.0078250
 NucSpn=           0           0           0           0           0           1           1           1           1           1
 AtZEff=  -0.0000000  -0.0000000  -0.0000000  -0.0000000  -0.0000000  -0.0000000  -0.0000000  -0.0000000  -0.0000000  -0.0000000
 NQMom=    0.0000000   0.0000000   0.0000000   0.0000000   0.0000000   0.0000000   0.0000000   0.0000000   0.0000000   0.0000000
 NMagM=    0.0000000   0.0000000   0.0000000   0.0000000   0.0000000   2.7928460   2.7928460   2.7928460   2.7928460   2.7928460
 AtZNuc=   8.0000000   8.0000000   6.0000000   6.0000000   6.0000000   1.0000000   1.0000000   1.0000000   1.0000000   1.0000000
 Leave Link  101 at Sun Sep 28 20:46:03 2025, MaxMem=  1572864000 cpu:               1.9 elap:               0.3
 (Enter /software/sse/easybuild/prefix/software/Gaussian/16.C.01-avx2-nsc1/g16/l103.exe)

 GradGradGradGradGradGradGradGradGradGradGradGradGradGradGradGradGradGrad
 Berny optimization.
 Initialization pass.
                           ----------------------------
                           !    Initial Parameters    !
                           ! (Angstroms and Degrees)  !
 --------------------------                            --------------------------
 ! Name  Definition              Value          Derivative Info.                !
 --------------------------------------------------------------------------------
 ! R1    R(1,5)                  1.2615         calculate D2E/DX2 analytically  !
 ! R2    R(2,5)                  1.2653         calculate D2E/DX2 analytically  !
 ! R3    R(3,4)                  1.5163         calculate D2E/DX2 analytically  !
 ! R4    R(3,5)                  1.5312         calculate D2E/DX2 analytically  !
 ! R5    R(3,6)                  1.0963         calculate D2E/DX2 analytically  !
 ! R6    R(3,7)                  1.0964         calculate D2E/DX2 analytically  !
 ! R7    R(4,8)                  1.095          calculate D2E/DX2 analytically  !
 ! R8    R(4,9)                  1.095          calculate D2E/DX2 analytically  !
 ! R9    R(4,10)                 1.0946         calculate D2E/DX2 analytically  !
 ! A1    A(4,3,5)              115.3592         calculate D2E/DX2 analytically  !
 ! A2    A(4,3,6)              109.1651         calculate D2E/DX2 analytically  !
 ! A3    A(4,3,7)              109.0818         calculate D2E/DX2 analytically  !
 ! A4    A(5,3,6)              107.7967         calculate D2E/DX2 analytically  !
 ! A5    A(5,3,7)              107.8225         calculate D2E/DX2 analytically  !
 ! A6    A(6,3,7)              107.3248         calculate D2E/DX2 analytically  !
 ! A7    A(3,4,8)              111.1906         calculate D2E/DX2 analytically  !
 ! A8    A(3,4,9)              111.212          calculate D2E/DX2 analytically  !
 ! A9    A(3,4,10)             110.2638         calculate D2E/DX2 analytically  !
 ! A10   A(8,4,9)              108.1176         calculate D2E/DX2 analytically  !
 ! A11   A(8,4,10)             107.9876         calculate D2E/DX2 analytically  !
 ! A12   A(9,4,10)             107.943          calculate D2E/DX2 analytically  !
 ! A13   A(1,5,2)              129.3116         calculate D2E/DX2 analytically  !
 ! A14   A(1,5,3)              116.6353         calculate D2E/DX2 analytically  !
 ! A15   A(2,5,3)              114.0531         calculate D2E/DX2 analytically  !
 ! D1    D(5,3,4,8)            -59.7959         calculate D2E/DX2 analytically  !
 ! D2    D(5,3,4,9)             60.7499         calculate D2E/DX2 analytically  !
 ! D3    D(5,3,4,10)          -179.544          calculate D2E/DX2 analytically  !
 ! D4    D(6,3,4,8)            178.6835         calculate D2E/DX2 analytically  !
 ! D5    D(6,3,4,9)            -60.7708         calculate D2E/DX2 analytically  !
 ! D6    D(6,3,4,10)            58.9353         calculate D2E/DX2 analytically  !
 ! D7    D(7,3,4,8)             61.6945         calculate D2E/DX2 analytically  !
 ! D8    D(7,3,4,9)           -177.7597         calculate D2E/DX2 analytically  !
 ! D9    D(7,3,4,10)           -58.0536         calculate D2E/DX2 analytically  !
 ! D10   D(4,3,5,1)            177.8553         calculate D2E/DX2 analytically  !
 ! D11   D(4,3,5,2)             -2.2009         calculate D2E/DX2 analytically  !
 ! D12   D(6,3,5,1)            -59.8889         calculate D2E/DX2 analytically  !
 ! D13   D(6,3,5,2)            120.0549         calculate D2E/DX2 analytically  !
 ! D14   D(7,3,5,1)             55.688          calculate D2E/DX2 analytically  !
 ! D15   D(7,3,5,2)           -124.3683         calculate D2E/DX2 analytically  !
 --------------------------------------------------------------------------------
 Trust Radius=3.00D-01 FncErr=1.00D-07 GrdErr=1.00D-07 EigMax=2.50D+02 EigMin=1.00D-04
 Number of steps in this run=     49 maximum allowed number of steps=    100.
 GradGradGradGradGradGradGradGradGradGradGradGradGradGradGradGradGradGrad

 Leave Link  103 at Sun Sep 28 20:46:03 2025, MaxMem=  1572864000 cpu:               0.1 elap:               0.0
 (Enter /software/sse/easybuild/prefix/software/Gaussian/16.C.01-avx2-nsc1/g16/l202.exe)
                          Input orientation:                          
 ---------------------------------------------------------------------
 Center     Atomic      Atomic             Coordinates (Angstroms)
 Number     Number       Type             X           Y           Z
 ---------------------------------------------------------------------
      1          8           0        1.672800   -0.610900    0.012200
      2          8           0        0.416400    1.295900   -0.006000
      3          6           0       -0.702300   -0.771200   -0.019100
      4          6           0       -1.981100    0.042900    0.015100
      5          6           0        0.594200    0.043200   -0.002200
      6          1           0       -0.695600   -1.393100   -0.921900
      7          1           0       -0.684900   -1.447700    0.843500
      8          1           0       -2.033000    0.660700    0.917700
      9          1           0       -2.053200    0.704100   -0.854700
     10          1           0       -2.852500   -0.619500    0.008300
 ---------------------------------------------------------------------
                    Distance matrix (angstroms):
                    1          2          3          4          5
     1  O    0.000000
     2  O    2.283585   0.000000
     3  C    2.380709   2.350439   0.000000
     4  C    3.711933   2.705265   1.516330   0.000000
     5  C    1.261520   1.265261   1.531158   2.575358   0.000000
     6  H    2.663400   3.050596   1.096290   2.143029   2.138315
     7  H    2.636293   3.076012   1.096373   2.142025   2.138712
     8  H    4.021175   2.693745   2.167647   1.095015   2.851263
     9  H    4.045221   2.677582   2.167872   1.094959   2.858719
    10  H    4.525310   3.788756   2.155719   1.094604   3.509846
                    6          7          8          9         10
     6  H    0.000000
     7  H    1.766277   0.000000
     8  H    3.064451   2.503643   0.000000
     9  H    2.499168   3.063719   1.773046   0.000000
    10  H    2.473044   2.466164   1.771299   1.770753   0.000000
 Stoichiometry    C3H5O2(1-)
 Framework group  C1[X(C3H5O2)]
 Deg. of freedom    24
 Full point group                 C1      NOp   1
 Largest Abelian subgroup         C1      NOp   1
 Largest concise Abelian subgroup C1      NOp   1
                         Standard orientation:                         
 ---------------------------------------------------------------------
 Center     Atomic      Atomic             Coordinates (Angstroms)
 Number     Number       Type             X           Y           Z
 ---------------------------------------------------------------------
      1          8           0       -1.780347   -0.588104   -0.013837
      2          8           0       -0.519505    1.315725    0.007791
      3          6           0        0.594356   -0.754001    0.018440
      4          6           0        1.875072    0.057157   -0.013918
      5          6           0       -0.700229    0.063451    0.002069
      6          1           0        0.585739   -1.377201    0.920326
      7          1           0        0.575818   -1.429197   -0.845157
      8          1           0        1.928878    0.676152   -0.915588
      9          1           0        1.948270    0.716916    0.856884
     10          1           0        2.744918   -0.607287   -0.007642
 ---------------------------------------------------------------------
 Rotational constants (GHZ):          10.4078634           4.0256387           3.0125135
 Leave Link  202 at Sun Sep 28 20:46:03 2025, MaxMem=  1572864000 cpu:               0.0 elap:               0.0
 (Enter /software/sse/easybuild/prefix/software/Gaussian/16.C.01-avx2-nsc1/g16/l301.exe)
 Standard basis: Aug-CC-pVTZ (5D, 7F)
 Ernie: Thresh=  0.10000D-02 Tol=  0.10000D-05 Strict=F.
 Ernie:  15 primitive shells out of 205 were deleted.
 There are   400 symmetry adapted cartesian basis functions of A   symmetry.
 There are   345 symmetry adapted basis functions of A   symmetry.
   345 basis functions,   495 primitive gaussians,   400 cartesian basis functions
    20 alpha electrons       20 beta electrons
       nuclear repulsion energy       168.7648335466 Hartrees.
 IExCor=    0 DFT=F Ex=HF Corr=None ExCW=0 ScaHFX=  1.000000
 ScaDFX=  1.000000  1.000000  1.000000  1.000000 ScalE2=  1.000000  1.000000
 IRadAn=      5 IRanWt=     -1 IRanGd=            0 ICorTp=0 IEmpDi=  4
 NAtoms=   10 NActive=   10 NUniq=   10 SFac= 1.00D+00 NAtFMM=   60 NAOKFM=F Big=F
 Integral buffers will be    131072 words long.
 Raffenetti 1 integral format.
 Two-electron integral symmetry is turned on.
 Leave Link  301 at Sun Sep 28 20:46:03 2025, MaxMem=  1572864000 cpu:               0.4 elap:               0.1
 (Enter /software/sse/easybuild/prefix/software/Gaussian/16.C.01-avx2-nsc1/g16/l302.exe)
 NPDir=0 NMtPBC=     1 NCelOv=     1 NCel=       1 NClECP=     1 NCelD=      1
         NCelK=      1 NCelE2=     1 NClLst=     1 CellRange=     0.0.
 One-electron integrals computed using PRISM.
 One-electron integral symmetry used in STVInt
 NBasis=   345 RedAO= T EigKep=  2.02D-05  NBF=   345
 NBsUse=   345 1.00D-06 EigRej= -1.00D+00 NBFU=   345
 Leave Link  302 at Sun Sep 28 20:46:03 2025, MaxMem=  1572864000 cpu:               1.5 elap:               0.2
 (Enter /software/sse/easybuild/prefix/software/Gaussian/16.C.01-avx2-nsc1/g16/l303.exe)
 DipDrv:  MaxL=1.
 Leave Link  303 at Sun Sep 28 20:46:04 2025, MaxMem=  1572864000 cpu:               1.0 elap:               0.2
 (Enter /software/sse/easybuild/prefix/software/Gaussian/16.C.01-avx2-nsc1/g16/l401.exe)
 ExpMin= 2.53D-02 ExpMax= 1.53D+04 ExpMxC= 5.22D+02 IAcc=3 IRadAn=         5 AccDes= 0.00D+00
 Harris functional with IExCor=  205 and IRadAn=       5 diagonalized for initial guess.
 HarFok:  IExCor=  205 AccDes= 0.00D+00 IRadAn=         5 IDoV= 1 UseB2=F ITyADJ=14
 ICtDFT=  3500011 ScaDFX=  1.000000  1.000000  1.000000  1.000000
 FoFCou: FMM=F IPFlag=           0 FMFlag=      100000 FMFlg1=           0
         NFxFlg=           0 DoJE=T BraDBF=F KetDBF=T FulRan=T
         wScrn=  0.000000 ICntrl=       500 IOpCl=  0 I1Cent=   200000004 NGrid=           0
         NMat0=    1 NMatS0=      1 NMatT0=    0 NMatD0=    1 NMtDS0=    0 NMtDT0=    0
 Petite list used in FoFCou.
 Harris En= -266.910229353571    
 JPrj=0 DoOrth=F DoCkMO=F.
 Leave Link  401 at Sun Sep 28 20:46:04 2025, MaxMem=  1572864000 cpu:               4.4 elap:               0.6
 (Enter /software/sse/easybuild/prefix/software/Gaussian/16.C.01-avx2-nsc1/g16/l502.exe)
 Integral symmetry usage will be decided dynamically.
 Closed shell SCF:
 Using DIIS extrapolation, IDIIS=  1040.
 NGot=  1572864000 LenX=  1572537234 LenY=  1572376793
 Requested convergence on RMS density matrix=1.00D-08 within 128 cycles.
 Requested convergence on MAX density matrix=1.00D-06.
 Requested convergence on             energy=1.00D-06.
 No special actions if energy rises.
 Fock matrices will be formed incrementally for  20 cycles.

 Cycle   1  Pass 1  IDiag  1:
 FoFJK:  IHMeth= 1 ICntrl=       0 DoSepK=F KAlg= 0 I1Cent=           0 FoldK=F
 IRaf= 990000000 NMat=       1 IRICut=       1 DoRegI=T DoRafI=F ISym2E= 0 IDoP0=0 IntGTp=1.
 FoFCou: FMM=F IPFlag=           0 FMFlag=      100000 FMFlg1=           0
         NFxFlg=           0 DoJE=F BraDBF=F KetDBF=F FulRan=T
         wScrn=  0.000000 ICntrl=         0 IOpCl=  0 I1Cent=           0 NGrid=           0
         NMat0=    1 NMatS0=      1 NMatT0=    0 NMatD0=    1 NMtDS0=    0 NMtDT0=    0
 Symmetry not used in FoFCou.
 E= -266.022133473771    
 DIIS: error= 3.71D-02 at cycle   1 NSaved=   1.
 NSaved= 1 IEnMin= 1 EnMin= -266.022133473771     IErMin= 1 ErrMin= 3.71D-02
 ErrMax= 3.71D-02  0.00D+00 EMaxC= 1.00D-01 BMatC= 6.64D-01 BMatP= 6.64D-01
 IDIUse=3 WtCom= 6.29D-01 WtEn= 3.71D-01
 Coeff-Com:  0.100D+01
 Coeff-En:   0.100D+01
 Coeff:      0.100D+01
 Gap=     0.568 Goal=   None    Shift=    0.000
 GapD=    0.568 DampG=2.000 DampE=0.500 DampFc=1.0000 IDamp=-1.
 RMSDP=2.18D-03 MaxDP=7.74D-02              OVMax= 1.45D-01

 Cycle   2  Pass 1  IDiag  1:
 RMSU=  2.12D-03    CP:  9.43D-01
 E= -266.292752315269     Delta-E=       -0.270618841499 Rises=F Damp=F
 DIIS: error= 1.74D-02 at cycle   2 NSaved=   2.
 NSaved= 2 IEnMin= 2 EnMin= -266.292752315269     IErMin= 2 ErrMin= 1.74D-02
 ErrMax= 1.74D-02  0.00D+00 EMaxC= 1.00D-01 BMatC= 1.14D-01 BMatP= 6.64D-01
 IDIUse=3 WtCom= 8.26D-01 WtEn= 1.74D-01
 Coeff-Com:  0.243D+00 0.757D+00
 Coeff-En:   0.000D+00 0.100D+01
 Coeff:      0.200D+00 0.800D+00
 Gap=     0.352 Goal=   None    Shift=    0.000
 RMSDP=1.04D-03 MaxDP=3.94D-02 DE=-2.71D-01 OVMax= 6.79D-02

 Cycle   3  Pass 1  IDiag  1:
 RMSU=  8.60D-04    CP:  9.62D-01  7.37D-01
 E= -266.368163813816     Delta-E=       -0.075411498546 Rises=F Damp=F
 DIIS: error= 6.41D-03 at cycle   3 NSaved=   3.
 NSaved= 3 IEnMin= 3 EnMin= -266.368163813816     IErMin= 3 ErrMin= 6.41D-03
 ErrMax= 6.41D-03  0.00D+00 EMaxC= 1.00D-01 BMatC= 1.06D-02 BMatP= 1.14D-01
 IDIUse=3 WtCom= 9.36D-01 WtEn= 6.41D-02
 Coeff-Com: -0.211D-01 0.202D+00 0.819D+00
 Coeff-En:   0.000D+00 0.000D+00 0.100D+01
 Coeff:     -0.197D-01 0.189D+00 0.831D+00
 Gap=     0.313 Goal=   None    Shift=    0.000
 RMSDP=1.78D-04 MaxDP=6.87D-03 DE=-7.54D-02 OVMax= 1.77D-02

 Cycle   4  Pass 1  IDiag  1:
 RMSU=  1.57D-04    CP:  9.60D-01  7.75D-01  9.91D-01
 E= -266.374751403253     Delta-E=       -0.006587589438 Rises=F Damp=F
 DIIS: error= 1.49D-03 at cycle   4 NSaved=   4.
 NSaved= 4 IEnMin= 4 EnMin= -266.374751403253     IErMin= 4 ErrMin= 1.49D-03
 ErrMax= 1.49D-03  0.00D+00 EMaxC= 1.00D-01 BMatC= 4.06D-04 BMatP= 1.06D-02
 IDIUse=3 WtCom= 9.85D-01 WtEn= 1.49D-02
 Coeff-Com: -0.108D-01 0.393D-01 0.250D+00 0.722D+00
 Coeff-En:   0.000D+00 0.000D+00 0.000D+00 0.100D+01
 Coeff:     -0.107D-01 0.387D-01 0.246D+00 0.726D+00
 Gap=     0.307 Goal=   None    Shift=    0.000
 RMSDP=5.34D-05 MaxDP=2.34D-03 DE=-6.59D-03 OVMax= 4.86D-03

 Cycle   5  Pass 1  IDiag  1:
 RMSU=  4.64D-05    CP:  9.60D-01  7.67D-01  1.01D+00  1.05D+00
 E= -266.375120345902     Delta-E=       -0.000368942649 Rises=F Damp=F
 DIIS: error= 2.72D-04 at cycle   5 NSaved=   5.
 NSaved= 5 IEnMin= 5 EnMin= -266.375120345902     IErMin= 5 ErrMin= 2.72D-04
 ErrMax= 2.72D-04  0.00D+00 EMaxC= 1.00D-01 BMatC= 2.73D-05 BMatP= 4.06D-04
 IDIUse=3 WtCom= 9.97D-01 WtEn= 2.72D-03
 Coeff-Com:  0.245D-02-0.216D-01-0.101D+00 0.840D-02 0.111D+01
 Coeff-En:   0.000D+00 0.000D+00 0.000D+00 0.000D+00 0.100D+01
 Coeff:      0.244D-02-0.215D-01-0.101D+00 0.838D-02 0.111D+01
 Gap=     0.307 Goal=   None    Shift=    0.000
 RMSDP=4.22D-05 MaxDP=2.33D-03 DE=-3.69D-04 OVMax= 2.36D-03

 Cycle   6  Pass 1  IDiag  1:
 RMSU=  1.41D-05    CP:  9.60D-01  7.59D-01  1.03D+00  1.23D+00  1.31D+00
 E= -266.375164376650     Delta-E=       -0.000044030747 Rises=F Damp=F
 DIIS: error= 5.53D-05 at cycle   6 NSaved=   6.
 NSaved= 6 IEnMin= 6 EnMin= -266.375164376650     IErMin= 6 ErrMin= 5.53D-05
 ErrMax= 5.53D-05  0.00D+00 EMaxC= 1.00D-01 BMatC= 1.51D-06 BMatP= 2.73D-05
 IDIUse=1 WtCom= 1.00D+00 WtEn= 0.00D+00
 Coeff-Com:  0.102D-02-0.593D-02-0.297D-01-0.390D-01 0.127D+00 0.946D+00
 Coeff:      0.102D-02-0.593D-02-0.297D-01-0.390D-01 0.127D+00 0.946D+00
 Gap=     0.307 Goal=   None    Shift=    0.000
 RMSDP=9.39D-06 MaxDP=5.52D-04 DE=-4.40D-05 OVMax= 6.61D-04

 Cycle   7  Pass 1  IDiag  1:
 RMSU=  3.31D-06    CP:  9.60D-01  7.57D-01  1.04D+00  1.26D+00  1.39D+00
                    CP:  1.18D+00
 E= -266.375166783001     Delta-E=       -0.000002406351 Rises=F Damp=F
 DIIS: error= 3.08D-05 at cycle   7 NSaved=   7.
 NSaved= 7 IEnMin= 7 EnMin= -266.375166783001     IErMin= 7 ErrMin= 3.08D-05
 ErrMax= 3.08D-05  0.00D+00 EMaxC= 1.00D-01 BMatC= 3.21D-07 BMatP= 1.51D-06
 IDIUse=1 WtCom= 1.00D+00 WtEn= 0.00D+00
 Coeff-Com:  0.787D-04 0.303D-03 0.139D-02-0.126D-01-0.823D-01 0.324D+00
 Coeff-Com:  0.769D+00
 Coeff:      0.787D-04 0.303D-03 0.139D-02-0.126D-01-0.823D-01 0.324D+00
 Coeff:      0.769D+00
 Gap=     0.307 Goal=   None    Shift=    0.000
 RMSDP=2.38D-06 MaxDP=1.27D-04 DE=-2.41D-06 OVMax= 2.18D-04

 Cycle   8  Pass 1  IDiag  1:
 RMSU=  1.31D-06    CP:  9.60D-01  7.57D-01  1.04D+00  1.26D+00  1.41D+00
                    CP:  1.25D+00  1.11D+00
 E= -266.375167129815     Delta-E=       -0.000000346814 Rises=F Damp=F
 DIIS: error= 5.18D-06 at cycle   8 NSaved=   8.
 NSaved= 8 IEnMin= 8 EnMin= -266.375167129815     IErMin= 8 ErrMin= 5.18D-06
 ErrMax= 5.18D-06  0.00D+00 EMaxC= 1.00D-01 BMatC= 1.81D-08 BMatP= 3.21D-07
 IDIUse=1 WtCom= 1.00D+00 WtEn= 0.00D+00
 Coeff-Com: -0.112D-03 0.726D-03 0.346D-02 0.432D-02-0.169D-01-0.101D+00
 Coeff-Com:  0.367D-01 0.107D+01
 Coeff:     -0.112D-03 0.726D-03 0.346D-02 0.432D-02-0.169D-01-0.101D+00
 Coeff:      0.367D-01 0.107D+01
 Gap=     0.307 Goal=   None    Shift=    0.000
 RMSDP=9.39D-07 MaxDP=3.85D-05 DE=-3.47D-07 OVMax= 9.76D-05

 Cycle   9  Pass 1  IDiag  1:
 RMSU=  3.97D-07    CP:  9.60D-01  7.57D-01  1.04D+00  1.27D+00  1.41D+00
                    CP:  1.28D+00  1.29D+00  1.28D+00
 E= -266.375167163138     Delta-E=       -0.000000033323 Rises=F Damp=F
 DIIS: error= 1.55D-06 at cycle   9 NSaved=   9.
 NSaved= 9 IEnMin= 9 EnMin= -266.375167163138     IErMin= 9 ErrMin= 1.55D-06
 ErrMax= 1.55D-06  0.00D+00 EMaxC= 1.00D-01 BMatC= 1.14D-09 BMatP= 1.81D-08
 IDIUse=1 WtCom= 1.00D+00 WtEn= 0.00D+00
 Coeff-Com: -0.772D-05 0.953D-06-0.105D-03 0.917D-03 0.499D-02-0.201D-01
 Coeff-Com: -0.462D-01-0.627D-01 0.112D+01
 Coeff:     -0.772D-05 0.953D-06-0.105D-03 0.917D-03 0.499D-02-0.201D-01
 Coeff:     -0.462D-01-0.627D-01 0.112D+01
 Gap=     0.307 Goal=   None    Shift=    0.000
 RMSDP=2.85D-07 MaxDP=1.29D-05 DE=-3.33D-08 OVMax= 2.64D-05

 Cycle  10  Pass 1  IDiag  1:
 RMSU=  1.08D-07    CP:  9.60D-01  7.57D-01  1.04D+00  1.27D+00  1.41D+00
                    CP:  1.28D+00  1.34D+00  1.38D+00  1.40D+00
 E= -266.375167166043     Delta-E=       -0.000000002904 Rises=F Damp=F
 DIIS: error= 5.14D-07 at cycle  10 NSaved=  10.
 NSaved=10 IEnMin=10 EnMin= -266.375167166043     IErMin=10 ErrMin= 5.14D-07
 ErrMax= 5.14D-07  0.00D+00 EMaxC= 1.00D-01 BMatC= 1.29D-10 BMatP= 1.14D-09
 IDIUse=1 WtCom= 1.00D+00 WtEn= 0.00D+00
 Coeff-Com:  0.861D-05-0.572D-04-0.289D-03-0.309D-03 0.134D-02 0.825D-02
 Coeff-Com:  0.318D-03-0.106D+00 0.270D-01 0.107D+01
 Coeff:      0.861D-05-0.572D-04-0.289D-03-0.309D-03 0.134D-02 0.825D-02
 Coeff:      0.318D-03-0.106D+00 0.270D-01 0.107D+01
 Gap=     0.307 Goal=   None    Shift=    0.000
 RMSDP=7.97D-08 MaxDP=3.79D-06 DE=-2.90D-09 OVMax= 7.65D-06

 Cycle  11  Pass 1  IDiag  1:
 RMSU=  3.35D-08    CP:  9.60D-01  7.57D-01  1.04D+00  1.27D+00  1.41D+00
                    CP:  1.28D+00  1.34D+00  1.39D+00  1.53D+00  1.30D+00
 E= -266.375167166372     Delta-E=       -0.000000000329 Rises=F Damp=F
 DIIS: error= 1.68D-07 at cycle  11 NSaved=  11.
 NSaved=11 IEnMin=11 EnMin= -266.375167166372     IErMin=11 ErrMin= 1.68D-07
 ErrMax= 1.68D-07  0.00D+00 EMaxC= 1.00D-01 BMatC= 1.46D-11 BMatP= 1.29D-10
 IDIUse=1 WtCom= 1.00D+00 WtEn= 0.00D+00
 Coeff-Com:  0.325D-06 0.320D-05 0.307D-04-0.741D-04-0.578D-03 0.113D-02
 Coeff-Com:  0.665D-02 0.107D-01-0.118D+00-0.785D-01 0.118D+01
 Coeff:      0.325D-06 0.320D-05 0.307D-04-0.741D-04-0.578D-03 0.113D-02
 Coeff:      0.665D-02 0.107D-01-0.118D+00-0.785D-01 0.118D+01
 Gap=     0.307 Goal=   None    Shift=    0.000
 RMSDP=2.88D-08 MaxDP=1.46D-06 DE=-3.29D-10 OVMax= 3.92D-06

 Cycle  12  Pass 1  IDiag  1:
 RMSU=  1.23D-08    CP:  9.60D-01  7.57D-01  1.04D+00  1.27D+00  1.41D+00
                    CP:  1.28D+00  1.34D+00  1.39D+00  1.56D+00  1.45D+00
                    CP:  1.45D+00
 E= -266.375167166411     Delta-E=       -0.000000000040 Rises=F Damp=F
 DIIS: error= 6.19D-08 at cycle  12 NSaved=  12.
 NSaved=12 IEnMin=12 EnMin= -266.375167166411     IErMin=12 ErrMin= 6.19D-08
 ErrMax= 6.19D-08  0.00D+00 EMaxC= 1.00D-01 BMatC= 1.70D-12 BMatP= 1.46D-11
 IDIUse=1 WtCom= 1.00D+00 WtEn= 0.00D+00
 Coeff-Com: -0.968D-06 0.531D-05 0.212D-04 0.520D-04 0.573D-04-0.145D-02
 Coeff-Com: -0.141D-02 0.778D-02 0.322D-01-0.965D-01-0.322D+00 0.138D+01
 Coeff:     -0.968D-06 0.531D-05 0.212D-04 0.520D-04 0.573D-04-0.145D-02
 Coeff:     -0.141D-02 0.778D-02 0.322D-01-0.965D-01-0.322D+00 0.138D+01
 Gap=     0.307 Goal=   None    Shift=    0.000
 RMSDP=1.25D-08 MaxDP=5.30D-07 DE=-3.96D-11 OVMax= 1.88D-06

 Cycle  13  Pass 1  IDiag  1:
 RMSU=  5.01D-09    CP:  9.60D-01  7.57D-01  1.04D+00  1.27D+00  1.41D+00
                    CP:  1.28D+00  1.34D+00  1.39D+00  1.56D+00  1.47D+00
                    CP:  1.64D+00  1.59D+00
 E= -266.375167166420     Delta-E=       -0.000000000009 Rises=F Damp=F
 DIIS: error= 1.93D-08 at cycle  13 NSaved=  13.
 NSaved=13 IEnMin=13 EnMin= -266.375167166420     IErMin=13 ErrMin= 1.93D-08
 ErrMax= 1.93D-08  0.00D+00 EMaxC= 1.00D-01 BMatC= 1.61D-13 BMatP= 1.70D-12
 IDIUse=1 WtCom= 1.00D+00 WtEn= 0.00D+00
 Coeff-Com:  0.240D-06-0.198D-05-0.104D-04-0.796D-05 0.722D-04 0.200D-03
 Coeff-Com: -0.211D-03-0.368D-02 0.579D-02 0.340D-01-0.467D-01-0.357D+00
 Coeff-Com:  0.137D+01
 Coeff:      0.240D-06-0.198D-05-0.104D-04-0.796D-05 0.722D-04 0.200D-03
 Coeff:     -0.211D-03-0.368D-02 0.579D-02 0.340D-01-0.467D-01-0.357D+00
 Coeff:      0.137D+01
 Gap=     0.307 Goal=   None    Shift=    0.000
 RMSDP=4.21D-09 MaxDP=1.61D-07 DE=-9.32D-12 OVMax= 5.97D-07

 SCF Done:  E(RHF) =  -266.375167166     A.U. after   13 cycles
            NFock= 13  Conv=0.42D-08     -V/T= 2.0014
 KE= 2.659953804926D+02 PE=-9.734764754145D+02 EE= 2.723410942089D+02
 Leave Link  502 at Sun Sep 28 20:47:18 2025, MaxMem=  1572864000 cpu:             584.5 elap:              73.5
 (Enter /software/sse/easybuild/prefix/software/Gaussian/16.C.01-avx2-nsc1/g16/l801.exe)
 Range of M.O.s used for correlation:     1   345
 NBasis=   345 NAE=    20 NBE=    20 NFC=     0 NFV=     0
 NROrb=    345 NOA=    20 NOB=    20 NVA=   325 NVB=   325

 **** Warning!!: The largest alpha MO coefficient is  0.46328543D+02

 Leave Link  801 at Sun Sep 28 20:47:18 2025, MaxMem=  1572864000 cpu:               0.2 elap:               0.0
 (Enter /software/sse/easybuild/prefix/software/Gaussian/16.C.01-avx2-nsc1/g16/l1101.exe)
 Using compressed storage, NAtomX=    10.
 Will process     11 centers per pass.
 Leave Link 1101 at Sun Sep 28 20:47:18 2025, MaxMem=  1572864000 cpu:               1.8 elap:               0.3
 (Enter /software/sse/easybuild/prefix/software/Gaussian/16.C.01-avx2-nsc1/g16/l1102.exe)
 Symmetrizing basis deriv contribution to polar:
 IMax=3 JMax=2 DiffMx= 0.00D+00
 Leave Link 1102 at Sun Sep 28 20:47:19 2025, MaxMem=  1572864000 cpu:               0.3 elap:               0.1
 (Enter /software/sse/easybuild/prefix/software/Gaussian/16.C.01-avx2-nsc1/g16/l1110.exe)
 Forming Gx(P) for the SCF density, NAtomX=    10.
 Integral derivatives from FoFJK, PRISM(SPDF).
 Do as many integral derivatives as possible in FoFJK.
 G2DrvN: MDV=    1572862834.
 G2DrvN: will do    11 centers at a time, making    1 passes.
 Calling FoFCou, ICntrl=  3107 FMM=F I1Cent=   0 AccDes= 0.00D+00.
 FoFJK:  IHMeth= 1 ICntrl=    3107 DoSepK=F KAlg= 0 I1Cent=           0 FoldK=F
 IRaf=         0 NMat=       1 IRICut=       1 DoRegI=T DoRafI=F ISym2E= 0 IDoP0=0 IntGTp=1.
 FoFCou: FMM=F IPFlag=           0 FMFlag=      100000 FMFlg1=           0
         NFxFlg=           0 DoJE=F BraDBF=F KetDBF=F FulRan=T
         wScrn=  0.000000 ICntrl=      3107 IOpCl=  0 I1Cent=           0 NGrid=           0
         NMat0=    1 NMatS0=      1 NMatT0=    0 NMatD0=    1 NMtDS0=    0 NMtDT0=    0
 Symmetry not used in FoFCou.
 End of G2Drv F.D. properties file   721 does not exist.
 End of G2Drv F.D. properties file   722 does not exist.
 End of G2Drv F.D. properties file   788 does not exist.
 Leave Link 1110 at Sun Sep 28 20:48:12 2025, MaxMem=  1572864000 cpu:             422.2 elap:              53.2
 (Enter /software/sse/easybuild/prefix/software/Gaussian/16.C.01-avx2-nsc1/g16/l1002.exe)
 Minotr:  Closed shell wavefunction.
          IDoAtm=1111111111
          Direct CPHF calculation.
          Differentiating once with respect to electric field.
                with respect to dipole field.
          Differentiating once with respect to nuclear coordinates.
          Requested convergence is 1.0D-08 RMS, and 1.0D-07 maximum.
          Secondary convergence is 1.0D-12 RMS, and 1.0D-12 maximum.
          NewPWx=T KeepS1=F KeepF1=F KeepIn=T MapXYZ=F SortEE=F KeepMc=T.
 Two-electron integrals replicated using symmetry.
          MDV=    1572864000 using IRadAn=       1.
          Solving linear equations simultaneously, MaxMat=     384.
 FoF2E skips out because all densities are zero.
 FoFJK:  IHMeth= 1 ICntrl=       0 DoSepK=F KAlg= 0 I1Cent=           0 FoldK=F
 IRaf= 990000000 NMat=      30 IRICut=      75 DoRegI=T DoRafI=T ISym2E= 2 IDoP0=3 IntGTp=3.
 FoFCou: FMM=F IPFlag=           0 FMFlag=      100000 FMFlg1=           0
         NFxFlg=           0 DoJE=F BraDBF=F KetDBF=F FulRan=T
         wScrn=  0.000000 ICntrl=         0 IOpCl=  0 I1Cent=           0 NGrid=           0
         NMat0=   30 NMatS0=     30 NMatT0=    0 NMatD0=   30 NMtDS0=    0 NMtDT0=    0
 Integrals replicated using symmetry in FoFCou.
 Raff kept on since  98.89% of shell-pairs survive, threshold=   0.20 IRatSp=99.
          There are    33 degrees of freedom in the 1st order CPHF.  IDoFFX=6 NUNeed=     3.
     30 vectors produced by pass  0 Test12= 1.97D-14 3.03D-09 XBig12= 1.45D+01 9.19D-01.
 AX will form    30 AO Fock derivatives at one time.
     30 vectors produced by pass  1 Test12= 1.97D-14 3.03D-09 XBig12= 9.74D-01 1.69D-01.
     30 vectors produced by pass  2 Test12= 1.97D-14 3.03D-09 XBig12= 2.93D-02 2.72D-02.
     30 vectors produced by pass  3 Test12= 1.97D-14 3.03D-09 XBig12= 6.02D-04 4.22D-03.
     30 vectors produced by pass  4 Test12= 1.97D-14 3.03D-09 XBig12= 8.41D-06 4.65D-04.
     30 vectors produced by pass  5 Test12= 1.97D-14 3.03D-09 XBig12= 9.86D-08 4.28D-05.
     30 vectors produced by pass  6 Test12= 1.97D-14 3.03D-09 XBig12= 1.02D-09 5.33D-06.
     14 vectors produced by pass  7 Test12= 1.97D-14 3.03D-09 XBig12= 8.03D-12 4.95D-07.
      3 vectors produced by pass  8 Test12= 1.97D-14 3.03D-09 XBig12= 5.47D-14 4.12D-08.
      1 vectors produced by pass  9 Test12= 1.97D-14 3.03D-09 XBig12= 4.52D-16 3.71D-09.
 InvSVY:  IOpt=1 It=  1 EMax= 3.55D-15
 Solved reduced A of dimension   228 with    33 vectors.
 FullF1:  Do perturbations      1 to       3.
 Isotropic polarizability for W=    0.000000       49.39 Bohr**3.
 End of Minotr F.D. properties file   721 does not exist.
 End of Minotr F.D. properties file   722 does not exist.
 End of Minotr F.D. properties file   788 does not exist.
 Leave Link 1002 at Sun Sep 28 20:51:33 2025, MaxMem=  1572864000 cpu:            1602.2 elap:             201.6
 (Enter /software/sse/easybuild/prefix/software/Gaussian/16.C.01-avx2-nsc1/g16/l601.exe)
 Copying SCF densities to generalized density rwf, IOpCl= 0 IROHF=0.
 SCF density gives NOpUse=  1 NOpAll=  1.

 **********************************************************************

            Population analysis using the SCF Density.

 **********************************************************************

 Orbital symmetries:
 BldTbl:  Degeneracy threshold= 1.00D-02
       Occupied  (A) (A) (A) (A) (A) (A) (A) (A) (A) (A) (A) (A)
                 (A) (A) (A) (A) (A) (A) (A) (A)
       Virtual   (A) (A) (A) (A) (A) (A) (A) (A) (A) (A) (A) (A)
                 (A) (A) (A) (A) (A) (A) (A) (A) (A) (A) (A) (A)
                 (A) (A) (A) (A) (A) (A) (A) (A) (A) (A) (A) (A)
                 (A) (A) (A) (A) (A) (A) (A) (A) (A) (A) (A) (A)
                 (A) (A) (A) (A) (A) (A) (A) (A) (A) (A) (A) (A)
                 (A) (A) (A) (A) (A) (A) (A) (A) (A) (A) (A) (A)
                 (A) (A) (A) (A) (A) (A) (A) (A) (A) (A) (A) (A)
                 (A) (A) (A) (A) (A) (A) (A) (A) (A) (A) (A) (A)
                 (A) (A) (A) (A) (A) (A) (A) (A) (A) (A) (A) (A)
                 (A) (A) (A) (A) (A) (A) (A) (A) (A) (A) (A) (A)
                 (A) (A) (A) (A) (A) (A) (A) (A) (A) (A) (A) (A)
                 (A) (A) (A) (A) (A) (A) (A) (A) (A) (A) (A) (A)
                 (A) (A) (A) (A) (A) (A) (A) (A) (A) (A) (A) (A)
                 (A) (A) (A) (A) (A) (A) (A) (A) (A) (A) (A) (A)
                 (A) (A) (A) (A) (A) (A) (A) (A) (A) (A) (A) (A)
                 (A) (A) (A) (A) (A) (A) (A) (A) (A) (A) (A) (A)
                 (A) (A) (A) (A) (A) (A) (A) (A) (A) (A) (A) (A)
                 (A) (A) (A) (A) (A) (A) (A) (A) (A) (A) (A) (A)
                 (A) (A) (A) (A) (A) (A) (A) (A) (A) (A) (A) (A)
                 (A) (A) (A) (A) (A) (A) (A) (A) (A) (A) (A) (A)
                 (A) (A) (A) (A) (A) (A) (A) (A) (A) (A) (A) (A)
                 (A) (A) (A) (A) (A) (A) (A) (A) (A) (A) (A) (A)
                 (A) (A) (A) (A) (A) (A) (A) (A) (A) (A) (A) (A)
                 (A) (A) (A) (A) (A) (A) (A) (A) (A) (A) (A) (A)
                 (A) (A) (A) (A) (A) (A) (A) (A) (A) (A) (A) (A)
                 (A) (A) (A) (A) (A) (A) (A) (A) (A) (A) (A) (A)
                 (A) (A) (A) (A) (A) (A) (A) (A) (A) (A) (A) (A)
                 (A)
 The electronic state is 1-A.
 Alpha  occ. eigenvalues --  -20.28842 -20.28805 -11.13095 -11.06294 -11.05228
 Alpha  occ. eigenvalues --   -1.15935  -1.06085  -0.87036  -0.70305  -0.51465
 Alpha  occ. eigenvalues --   -0.45918  -0.44352  -0.40470  -0.36895  -0.35906
 Alpha  occ. eigenvalues --   -0.33630  -0.30778  -0.20518  -0.19423  -0.18966
 Alpha virt. eigenvalues --    0.11746   0.13539   0.13678   0.14580   0.15770
 Alpha virt. eigenvalues --    0.19427   0.20540   0.22036   0.22287   0.23363
 Alpha virt. eigenvalues --    0.24557   0.24838   0.24913   0.27094   0.27165
 Alpha virt. eigenvalues --    0.30275   0.32075   0.34518   0.35061   0.35514
 Alpha virt. eigenvalues --    0.35840   0.36451   0.38876   0.40669   0.41691
 Alpha virt. eigenvalues --    0.41958   0.42357   0.42403   0.44539   0.45392
 Alpha virt. eigenvalues --    0.46807   0.46904   0.47458   0.49194   0.49491
 Alpha virt. eigenvalues --    0.49665   0.51252   0.51844   0.52850   0.53308
 Alpha virt. eigenvalues --    0.55505   0.56431   0.57218   0.57918   0.59308
 Alpha virt. eigenvalues --    0.59613   0.59871   0.62460   0.62945   0.63923
 Alpha virt. eigenvalues --    0.64689   0.65591   0.65693   0.66863   0.67156
 Alpha virt. eigenvalues --    0.67975   0.72489   0.73452   0.73751   0.74795
 Alpha virt. eigenvalues --    0.79057   0.79264   0.84186   0.85409   0.87594
 Alpha virt. eigenvalues --    0.88758   0.91064   0.92188   0.92941   0.94906
 Alpha virt. eigenvalues --    0.95910   0.96475   0.97978   0.98749   0.99427
 Alpha virt. eigenvalues --    1.01009   1.02406   1.02642   1.03169   1.04896
 Alpha virt. eigenvalues --    1.05324   1.07728   1.08554   1.09537   1.09747
 Alpha virt. eigenvalues --    1.11738   1.12540   1.13047   1.13516   1.15986
 Alpha virt. eigenvalues --    1.18027   1.18987   1.19187   1.20245   1.21576
 Alpha virt. eigenvalues --    1.23460   1.24288   1.25842   1.26222   1.26950
 Alpha virt. eigenvalues --    1.28580   1.28987   1.30573   1.31315   1.32221
 Alpha virt. eigenvalues --    1.34024   1.35157   1.36632   1.37107   1.38439
 Alpha virt. eigenvalues --    1.40790   1.43225   1.43484   1.46068   1.49491
 Alpha virt. eigenvalues --    1.50773   1.53493   1.54731   1.55691   1.56245
 Alpha virt. eigenvalues --    1.59828   1.60353   1.61168   1.63219   1.63483
 Alpha virt. eigenvalues --    1.69409   1.69699   1.71886   1.73153   1.76733
 Alpha virt. eigenvalues --    1.77079   1.79039   1.81151   1.81523   1.84393
 Alpha virt. eigenvalues --    1.84539   1.85058   1.85496   1.88431   1.90680
 Alpha virt. eigenvalues --    1.91172   1.91859   1.92168   1.96820   1.97205
 Alpha virt. eigenvalues --    1.99796   2.00831   2.01200   2.04785   2.06325
 Alpha virt. eigenvalues --    2.09199   2.09917   2.10426   2.14227   2.15919
 Alpha virt. eigenvalues --    2.17949   2.24347   2.25690   2.28237   2.29407
 Alpha virt. eigenvalues --    2.32264   2.33302   2.37186   2.39031   2.41342
 Alpha virt. eigenvalues --    2.42700   2.44028   2.45300   2.47838   2.53019
 Alpha virt. eigenvalues --    2.55599   2.59382   2.60563   2.61101   2.62425
 Alpha virt. eigenvalues --    2.68695   2.71243   2.75429   2.76670   2.78005
 Alpha virt. eigenvalues --    2.82093   2.83295   2.85630   2.86346   2.89553
 Alpha virt. eigenvalues --    2.93995   2.98423   3.01534   3.05514   3.06396
 Alpha virt. eigenvalues --    3.10720   3.16417   3.23188   3.24521   3.27061
 Alpha virt. eigenvalues --    3.28603   3.31137   3.38929   3.41043   3.50022
 Alpha virt. eigenvalues --    3.52515   3.52911   3.55870   3.62734   3.64775
 Alpha virt. eigenvalues --    3.67209   3.69711   3.71812   3.73158   3.74682
 Alpha virt. eigenvalues --    3.80825   3.81733   3.85076   3.86237   3.88709
 Alpha virt. eigenvalues --    3.90205   3.92190   3.92937   3.94948   3.98948
 Alpha virt. eigenvalues --    4.00659   4.02432   4.04054   4.05929   4.11199
 Alpha virt. eigenvalues --    4.14057   4.15039   4.17592   4.18544   4.22004
 Alpha virt. eigenvalues --    4.26376   4.28399   4.31943   4.32329   4.34227
 Alpha virt. eigenvalues --    4.36564   4.37213   4.40384   4.41560   4.44912
 Alpha virt. eigenvalues --    4.45486   4.50620   4.57295   4.60950   4.64004
 Alpha virt. eigenvalues --    4.65813   4.69311   4.70795   4.75902   4.78549
 Alpha virt. eigenvalues --    4.84707   4.85313   4.91315   4.93057   4.98815
 Alpha virt. eigenvalues --    4.98889   5.00452   5.04206   5.04343   5.08866
 Alpha virt. eigenvalues --    5.15969   5.19804   5.20152   5.24902   5.27762
 Alpha virt. eigenvalues --    5.28833   5.30556   5.35652   5.37990   5.47210
 Alpha virt. eigenvalues --    5.47871   5.49777   5.54107   5.56535   5.61383
 Alpha virt. eigenvalues --    5.61901   5.64077   5.73887   5.74981   5.81115
 Alpha virt. eigenvalues --    5.87014   5.92360   6.02382   6.06679   6.13639
 Alpha virt. eigenvalues --    6.21176   6.24457   6.28526   6.33037   6.37096
 Alpha virt. eigenvalues --    6.47214   6.56198   6.65832   6.84328   6.92404
 Alpha virt. eigenvalues --    6.92547   6.93043   6.96885   7.01840   7.05641
 Alpha virt. eigenvalues --    7.14402   7.16535   7.19754   7.28267   7.31367
 Alpha virt. eigenvalues --    7.39245   7.43700   7.53094   7.59362   7.60228
 Alpha virt. eigenvalues --    7.62993   7.76945   7.82286   7.89078   7.92384
 Alpha virt. eigenvalues --    7.93874   8.06185   8.10863   8.18488   8.26939
 Alpha virt. eigenvalues --   14.48112  15.41805  17.24366  18.36892  19.40802
          Condensed to atoms (all electrons):
               1          2          3          4          5          6
     1  O    8.672574  -0.138299  -0.095196  -0.015521   0.384599   0.014748
     2  O   -0.138299   8.683819  -0.081362  -0.023718   0.375033  -0.002837
     3  C   -0.095196  -0.081362   5.337147   0.065308   0.082301   0.430930
     4  C   -0.015521  -0.023718   0.065308   5.622919   0.039445  -0.024259
     5  C    0.384599   0.375033   0.082301   0.039445   4.724118  -0.008333
     6  H    0.014748  -0.002837   0.430930  -0.024259  -0.008333   0.370779
     7  H    0.015906  -0.004771   0.429183  -0.026614  -0.005931   0.009685
     8  H    0.001331   0.012196   0.019102   0.376101  -0.011768   0.001052
     9  H    0.001516   0.009581   0.019155   0.374808  -0.010532  -0.001967
    10  H   -0.003488  -0.010674  -0.055687   0.461376   0.012556  -0.005164
               7          8          9         10
     1  O    0.015906   0.001331   0.001516  -0.003488
     2  O   -0.004771   0.012196   0.009581  -0.010674
     3  C    0.429183   0.019102   0.019155  -0.055687
     4  C   -0.026614   0.376101   0.374808   0.461376
     5  C   -0.005931  -0.011768  -0.010532   0.012556
     6  H    0.009685   0.001052  -0.001967  -0.005164
     7  H    0.372852  -0.002955   0.001169  -0.005270
     8  H   -0.002955   0.304605   0.014325   0.006960
     9  H    0.001169   0.014325   0.305063   0.006288
    10  H   -0.005270   0.006960   0.006288   0.345509
 Mulliken charges:
               1
     1  O   -0.838171
     2  O   -0.818968
     3  C   -0.150881
     4  C   -0.849844
     5  C    0.418511
     6  H    0.215368
     7  H    0.216746
     8  H    0.279052
     9  H    0.280595
    10  H    0.247593
 Sum of Mulliken charges =  -1.00000
 Mulliken charges with hydrogens summed into heavy atoms:
               1
     1  O   -0.838171
     2  O   -0.818968
     3  C    0.281232
     4  C   -0.042605
     5  C    0.418511
 APT charges:
               1
     1  O   -1.148131
     2  O   -1.107076
     3  C    0.079082
     4  C    0.148381
     5  C    1.381128
     6  H   -0.075601
     7  H   -0.075761
     8  H   -0.048902
     9  H   -0.047371
    10  H   -0.105749
 Sum of APT charges =  -1.00000
 APT charges with hydrogens summed into heavy atoms:
               1
     1  O   -1.148131
     2  O   -1.107076
     3  C   -0.072280
     4  C   -0.053641
     5  C    1.381128
 DipInt: DoE/N= T F RetVal/Mat= T F Init=T NMatP=  1 IDeriv=0 Min/MaxMlt=  0  4
 Entering OneElI...
 OneElI was handed  1572454870 working-precision words.
 Multipole integrals L=0 to 4 MinM= 0 MaxM= 0.
 Requested accuracy = 0.1000D-12
 ShPair: Thresh= 1.00D-13 NBox=     0 BxSize= 0.00D+00 RnKept= 8.55D+00
         NSMCal=                 6670 NSMKep=                6620
 PrmmSu-InSpLW:  IPartL=    0 NPrtUS=    1 NPrtUL=    1 DoSpLW=F IThBeg=    0 IThEnd=    0 NThAct=    1.
 PrSmSu:  IncTry=   512 NBBP=           6620 NTPThr=   100 NPartT=    1 Incr=          66 LDynOK=F GPUOK=F.
 PrsmSu:  NPrtUS=   1 ThrOK=F IAlg=2 LenDen=           0 ISkipM=0 DoSpLW=F IThBeg=    0 IThEnd=    0.
 Prism:   IPart=     0 DynPar=F LinDyn=F Incr=          66.
 PRISM was handed  1571983912 working-precision words and  6620 shell-pairs
 IPart=  0 NShTot=        6620 NBatch=          86 AvBLen=        77.0
 PrsmSu-ThDecC:  IPartSL=    0    0 NPrtUSL=    1    1 IThBeg=    0 IThEnd=    0 CPU=   -1 GPU=   -1 NThAct=    1.
 PrSmSu:  NxtVal=             67.
 Electronic moments (au):
        -40.00000000          2.19089181         -0.78955238          0.01158984
       -283.10812330       -121.42698120        -35.00427514         -0.95434757
         -0.05040788         -0.04217697       -176.68923246        -67.90138905
         -0.22935881         39.77643274         93.84675235          5.46119819
        -28.53359221          7.92026053         -1.23643147          1.80566045
      -4308.61027455       -924.83024890       -159.87641746       -326.15529862
          3.46383899        147.73087056         -2.40612125          1.87070491
          3.33829268       -542.30581271       -281.92951800       -141.46140728
         -2.83856906         -1.45181000         -8.90020575
 Electronic spatial extent (au):  <R**2>=            439.5394
 DipInt: DoE/N= F T RetVal/Mat= T F Init=T NMatP=  1 IDeriv=0 Min/MaxMlt=  0  4
 Nuclear    moments (au):
         39.00000000          0.00000000         -0.00000000          0.00000000
        247.82676075         90.52683060         11.21009118          0.00000000
         -0.00000000         -0.00000000        189.86013175         60.37892796
          0.25281100        -33.00517720        -84.77719838         -5.11872795
         26.69286818         -7.39553225          1.15083694         -1.68035982
       3093.29301618        449.52363068         31.49221523        297.11878636
         -3.62243143       -135.28343855          2.73819064         -1.85794379
         -3.55394319        274.84433741         82.17292715         48.82547498
          2.69953333          1.53339649         10.81641391
 Total      moments (au):
         -1.00000000          2.19089181         -0.78955238          0.01158984
        -35.28136255        -30.90015060        -23.79418395         -0.95434757
         -0.05040788         -0.04217697         13.17089929         -7.52246108
          0.02345218          6.77125554          9.06955397          0.34247025
         -1.84072403          0.52472828         -0.08559453          0.12530063
      -1215.31725836       -475.30661822       -128.38420223        -29.03651226
         -0.15859244         12.44743200          0.33206939          0.01276112
         -0.21565051       -267.46147530       -199.75659085        -92.63593230
         -0.13903572          0.08158649          1.91620816
 Charge=             -1.0000 electrons
 Dipole moment (field-independent basis, Debye):
    X=              5.5687    Y=             -2.0068    Z=              0.0295  Tot=              5.9193
 Quadrupole moment (field-independent basis, Debye-Ang):
   XX=            -47.4546   YY=            -41.5618   ZZ=            -32.0040
   XY=             -1.2836   XZ=             -0.0678   YZ=             -0.0567
 Traceless Quadrupole moment (field-independent basis, Debye-Ang):
   XX=             -7.1145   YY=             -1.2216   ZZ=              8.3361
   XY=             -1.2836   XZ=             -0.0678   YZ=             -0.0567
 Octapole moment (field-independent basis, Debye-Ang**2):
  XXX=              9.3745  YYY=             -5.3542  ZZZ=              0.0167  XYY=              4.8195
  XXY=              6.4554  XXZ=              0.2438  XZZ=             -1.3102  YZZ=              0.3735
  YYZ=             -0.0609  XYZ=              0.0892
 Hexadecapole moment (field-independent basis, Debye-Ang**3):
 XXXX=           -457.7468 YYYY=           -179.0233 ZZZZ=            -48.3556 XXXY=            -10.9365
 XXXZ=             -0.0597 YYYX=              4.6883 YYYZ=              0.1251 ZZZX=              0.0048
 ZZZY=             -0.0812 XXYY=           -100.7388 XXZZ=            -75.2379 YYZZ=            -34.8911
 XXYZ=             -0.0524 YYXZ=              0.0307 ZZXY=              0.7217
 N-N= 1.687648335466D+02 E-N=-9.734764741790D+02  KE= 2.659953804926D+02
 SetAtRh:  ITypeU=  23 NETotI=      -1 ICharg=  0 NETot=      39.
 StAtR1:  I=    1 I1=    1 IA=  8 C=   8.0 OKShel=TTT
                                                  SSP
                                                  224
 StAtR1:  I=    2 I1=    2 IA=  8 C=   8.0 OKShel=TTT
                                                  SSP
                                                  224
 StAtR1:  I=    3 I1=    3 IA=  6 C=   6.0 OKShel=TTT
                                                  SSP
                                                  222
 StAtR1:  I=    4 I1=    4 IA=  6 C=   6.0 OKShel=TTT
                                                  SSP
                                                  222
 StAtR1:  I=    5 I1=    5 IA=  6 C=   6.0 OKShel=TTT
                                                  SSP
                                                  222
 StAtR1:  I=    6 I1=    6 IA=  1 C=   1.0 OKShel=T
                                                  S
                                                  1
 StAtR1:  I=    7 I1=    7 IA=  1 C=   1.0 OKShel=T
                                                  S
                                                  1
 StAtR1:  I=    8 I1=    8 IA=  1 C=   1.0 OKShel=T
                                                  S
                                                  1
 StAtR1:  I=    9 I1=    9 IA=  1 C=   1.0 OKShel=T
                                                  S
                                                  1
 StAtR1:  I=   10 I1=   10 IA=  1 C=   1.0 OKShel=T
                                                  S
                                                  1
          I=    1 IA=  8 I1=    1 NAtG=23 NE=   8.000 C=   8.000 Err=-3.68D-11
          I=    2 IA=  8 I1=    2 NAtG=23 NE=   8.000 C=   8.000 Err=-3.68D-11
          I=    3 IA=  6 I1=    3 NAtG=23 NE=   6.000 C=   6.000 Err= 1.75D-11
          I=    4 IA=  6 I1=    4 NAtG=23 NE=   6.000 C=   6.000 Err= 1.75D-11
          I=    5 IA=  6 I1=    5 NAtG=23 NE=   6.000 C=   6.000 Err= 1.75D-11
          I=    6 IA=  1 I1=    6 NAtG=20 NE=   1.000 C=   1.000 Err= 2.80D-12
          I=    7 IA=  1 I1=    7 NAtG=20 NE=   1.000 C=   1.000 Err= 2.80D-12
          I=    8 IA=  1 I1=    8 NAtG=20 NE=   1.000 C=   1.000 Err= 2.80D-12
          I=    9 IA=  1 I1=    9 NAtG=20 NE=   1.000 C=   1.000 Err= 2.80D-12
          I=   10 IA=  1 I1=   10 NAtG=20 NE=   1.000 C=   1.000 Err= 2.80D-12
 Pruned (  99, 590) grid will be used in numerical quadrature.
 IPart=  0 IRanGd=          0 ScrnBf=T ScrnGd=T RCrit=4.00D+00 DoMicB=T.
 CutRad = 1000.00    CtRdIn =    0.00    XCrit =  15.00   ICut = 0
 Pruned (  99, 590) grid will be used in numerical quadrature.
 Pruned (  99, 590) grid will be used in numerical quadrature.
 IPart=  4 IRanGd=          0 ScrnBf=T ScrnGd=T RCrit=4.00D+00 DoMicB=T.
 Pruned (  99, 590) grid will be used in numerical quadrature.
 Pruned (  99, 590) grid will be used in numerical quadrature.
 IPart=  3 IRanGd=          0 ScrnBf=T ScrnGd=T RCrit=4.00D+00 DoMicB=T.
 Pruned (  99, 590) grid will be used in numerical quadrature.
 IPart=  5 IRanGd=          0 ScrnBf=T ScrnGd=T RCrit=4.00D+00 DoMicB=T.
 CutRad = 1000.00    CtRdIn =    0.00    XCrit =  15.00   ICut = 0
 CutRad = 1000.00    CtRdIn =    0.00    XCrit =  15.00   ICut = 0
 CutRad = 1000.00    CtRdIn =    0.00    XCrit =  15.00   ICut = 0
 Pruned (  99, 590) grid will be used in numerical quadrature.
 IPart=  2 IRanGd=          0 ScrnBf=T ScrnGd=T RCrit=4.00D+00 DoMicB=T.
 CutRad = 1000.00    CtRdIn =    0.00    XCrit =  15.00   ICut = 0
 IPart=  1 IRanGd=          0 ScrnBf=T ScrnGd=T RCrit=4.00D+00 DoMicB=T.
 Pruned (  99, 590) grid will be used in numerical quadrature.
 CutRad = 1000.00    CtRdIn =    0.00    XCrit =  15.00   ICut = 0
 IPart=  6 IRanGd=          0 ScrnBf=T ScrnGd=T RCrit=4.00D+00 DoMicB=T.
 IPart=  7 IRanGd=          0 ScrnBf=T ScrnGd=T RCrit=4.00D+00 DoMicB=T.
 CutRad = 1000.00    CtRdIn =    0.00    XCrit =  15.00   ICut = 0
 CutRad = 1000.00    CtRdIn =    0.00    XCrit =  15.00   ICut = 0
 Pruned (  99, 590) grid will be used in numerical quadrature.
 IPart=  0 Atom number   1 atomic number  8 has       23718 grid points.
 IPart=  0 Atom   1 batch    1 overlaps   10 atoms,   100 shells and    10 DB shells.   NGrid=      2408
 Symmetry reduced    86 angular points to    86 for atom    1.
 Pruned (  99, 590) grid will be used in numerical quadrature.
 Pruned (  99, 590) grid will be used in numerical quadrature.
 Pruned (  99, 590) grid will be used in numerical quadrature.
 IPart=  5 Atom number   1 atomic number  8 has       23718 grid points.
 IPart=  2 Atom number   1 atomic number  8 has       23718 grid points.
 IPart=  3 Atom number   1 atomic number  8 has       23718 grid points.
 IPart=  5 Atom   1 batch    3 overlaps   10 atoms,   102 shells and    10 DB shells.   NGrid=      2114
 IPart=  3 Atom   1 batch    2 overlaps   10 atoms,   100 shells and    10 DB shells.   NGrid=      2522
 Pruned (  99, 590) grid will be used in numerical quadrature.
 Symmetry reduced   194 angular points to   194 for atom    1.
 IPart=  6 Atom number   1 atomic number  8 has       23718 grid points.
 Pruned (  99, 590) grid will be used in numerical quadrature.
 IPart=  6 Atom   1 batch    7 overlaps   10 atoms,   106 shells and    10 DB shells.   NGrid=      1180
 IPart=  4 Atom number   1 atomic number  8 has       23718 grid points.
 Pruned (  99, 590) grid will be used in numerical quadrature.
 Symmetry reduced   590 angular points to   590 for atom    1.
 IPart=  7 Atom number   1 atomic number  8 has       23718 grid points.
 Symmetry reduced   302 angular points to   302 for atom    1.
 IPart=  7 Atom   1 batch    8 overlaps   10 atoms,   106 shells and    10 DB shells.   NGrid=      1180
 IPart=  2 Atom   1 batch    5 overlaps   10 atoms,   103 shells and    10 DB shells.   NGrid=      1180
 Symmetry reduced   590 angular points to   590 for atom    1.
 IPart=  4 Atom   1 batch    4 overlaps   10 atoms,   102 shells and    10 DB shells.   NGrid=      1180
 Symmetry reduced   590 angular points to   590 for atom    1.
 Symmetry reduced   590 angular points to   590 for atom    1.
 Pruned (  99, 590) grid will be used in numerical quadrature.
 IPart=  1 Atom number   1 atomic number  8 has       23718 grid points.
 IPart=  1 Atom   1 batch    6 overlaps   10 atoms,   106 shells and    10 DB shells.   NGrid=      1180
 Symmetry reduced   590 angular points to   590 for atom    1.
 IPart=  2 Atom   1 batch    9 overlaps   10 atoms,   109 shells and    10 DB shells.   NGrid=      1180
 IPart=  4 Atom   1 batch   10 overlaps   10 atoms,   112 shells and    10 DB shells.   NGrid=      1180
 IPart=  7 Atom   1 batch   11 overlaps   10 atoms,   113 shells and    10 DB shells.   NGrid=      1180
 IPart=  6 Atom   1 batch   12 overlaps   10 atoms,   113 shells and    10 DB shells.   NGrid=       590
 IPart=  1 Atom   1 batch   13 overlaps   10 atoms,   114 shells and    10 DB shells.   NGrid=       604
 Symmetry reduced   302 angular points to   302 for atom    1.
 IPart=  0 Atom   1 batch   14 overlaps   10 atoms,   114 shells and    10 DB shells.   NGrid=       604
 Symmetry reduced   302 angular points to   302 for atom    1.
 IPart=  6 Atom   1 batch   15 overlaps   10 atoms,   111 shells and    10 DB shells.   NGrid=       604
 Symmetry reduced   302 angular points to   302 for atom    1.
 IPart=  1 Atom   1 batch   16 overlaps   10 atoms,   110 shells and    10 DB shells.   NGrid=       604
 IPart=  5 Atom   1 batch   17 overlaps   10 atoms,   108 shells and    10 DB shells.   NGrid=       604
 IPart=  3 Atom   1 batch   18 overlaps   10 atoms,   100 shells and    10 DB shells.   NGrid=       604
 Symmetry reduced   302 angular points to   302 for atom    1.
 IPart=  2 Atom   1 batch   19 overlaps   10 atoms,    87 shells and    10 DB shells.   NGrid=       604
 Symmetry reduced   302 angular points to   302 for atom    1.
 IPart=  4 Atom   1 batch   20 overlaps   10 atoms,    64 shells and     9 DB shells.   NGrid=       604
 Symmetry reduced   302 angular points to   302 for atom    1.
 IPart=  5 Atom   1 batch   21 overlaps   10 atoms,    40 shells and     8 DB shells.   NGrid=       604
 IPart=  7 Atom   1 batch   22 overlaps   10 atoms,    21 shells and     4 DB shells.   NGrid=       604
 Symmetry reduced   302 angular points to   302 for atom    1.
 IPart=  3 Atom   1 batch   23 overlaps   10 atoms,     8 shells and     0 DB shells.   NGrid=       604
 Pruned (  99, 590) grid will be used in numerical quadrature.
 IPart=  5 Atom number   2 atomic number  8 has       23718 grid points.
 IPart=  5 Atom   2 batch    1 overlaps   10 atoms,   107 shells and    10 DB shells.   NGrid=      2408
 Symmetry reduced    86 angular points to    86 for atom    2.
 Pruned (  99, 590) grid will be used in numerical quadrature.
 IPart=  3 Atom number   2 atomic number  8 has       23718 grid points.
 IPart=  3 Atom   2 batch    2 overlaps   10 atoms,   109 shells and    10 DB shells.   NGrid=      2522
 Symmetry reduced   194 angular points to   194 for atom    2.
 Pruned (  99, 590) grid will be used in numerical quadrature.
 IPart=  6 Atom number   2 atomic number  8 has       23718 grid points.
 IPart=  6 Atom   2 batch    3 overlaps   10 atoms,   110 shells and    10 DB shells.   NGrid=      2114
 Pruned (  99, 590) grid will be used in numerical quadrature.
 Symmetry reduced   302 angular points to   302 for atom    2.
 IPart=  1 Atom number   2 atomic number  8 has       23718 grid points.
 IPart=  1 Atom   2 batch    4 overlaps   10 atoms,   110 shells and    10 DB shells.   NGrid=      1180
 Symmetry reduced   590 angular points to   590 for atom    2.
 Pruned (  99, 590) grid will be used in numerical quadrature.
 IPart=  7 Atom number   2 atomic number  8 has       23718 grid points.
 Pruned (  99, 590) grid will be used in numerical quadrature.
 IPart=  7 Atom   2 batch    5 overlaps   10 atoms,   111 shells and    10 DB shells.   NGrid=      1180
 IPart=  4 Atom number   2 atomic number  8 has       23718 grid points.
 Symmetry reduced   590 angular points to   590 for atom    2.
 IPart=  4 Atom   2 batch    6 overlaps   10 atoms,   111 shells and    10 DB shells.   NGrid=      1180
 Symmetry reduced   590 angular points to   590 for atom    2.
 Pruned (  99, 590) grid will be used in numerical quadrature.
 IPart=  0 Atom number   2 atomic number  8 has       23718 grid points.
 IPart=  0 Atom   2 batch    7 overlaps   10 atoms,   112 shells and    10 DB shells.   NGrid=      1180
 Symmetry reduced   590 angular points to   590 for atom    2.
 Pruned (  99, 590) grid will be used in numerical quadrature.
 IPart=  2 Atom number   2 atomic number  8 has       23718 grid points.
 IPart=  2 Atom   2 batch    8 overlaps   10 atoms,   114 shells and    10 DB shells.   NGrid=      1180
 Symmetry reduced   590 angular points to   590 for atom    2.
 IPart=  1 Atom   2 batch    9 overlaps   10 atoms,   115 shells and    10 DB shells.   NGrid=      1180
 IPart=  7 Atom   2 batch   10 overlaps   10 atoms,   115 shells and    10 DB shells.   NGrid=      1180
 IPart=  4 Atom   2 batch   11 overlaps   10 atoms,   115 shells and    10 DB shells.   NGrid=      1180
 IPart=  0 Atom   2 batch   12 overlaps   10 atoms,   114 shells and    10 DB shells.   NGrid=       590
 IPart=  2 Atom   2 batch   13 overlaps   10 atoms,   114 shells and    10 DB shells.   NGrid=       604
 Symmetry reduced   302 angular points to   302 for atom    2.
 IPart=  0 Atom   2 batch   14 overlaps   10 atoms,   114 shells and    10 DB shells.   NGrid=       604
 Symmetry reduced   302 angular points to   302 for atom    2.
 IPart=  5 Atom   2 batch   15 overlaps   10 atoms,   111 shells and    10 DB shells.   NGrid=       604
 Symmetry reduced   302 angular points to   302 for atom    2.
 IPart=  6 Atom   2 batch   16 overlaps   10 atoms,   110 shells and    10 DB shells.   NGrid=       604
 IPart=  2 Atom   2 batch   17 overlaps   10 atoms,   108 shells and    10 DB shells.   NGrid=       604
 IPart=  3 Atom   2 batch   18 overlaps   10 atoms,    99 shells and    10 DB shells.   NGrid=       604
 Symmetry reduced   302 angular points to   302 for atom    2.
 IPart=  1 Atom   2 batch   19 overlaps   10 atoms,    86 shells and    10 DB shells.   NGrid=       604
 Symmetry reduced   302 angular points to   302 for atom    2.
 IPart=  2 Atom   2 batch   20 overlaps   10 atoms,    61 shells and     9 DB shells.   NGrid=       604
 IPart=  4 Atom   2 batch   21 overlaps   10 atoms,    37 shells and     8 DB shells.   NGrid=       604
 Symmetry reduced   302 angular points to   302 for atom    2.
 IPart=  7 Atom   2 batch   22 overlaps   10 atoms,    18 shells and     0 DB shells.   NGrid=       604
 Symmetry reduced   302 angular points to   302 for atom    2.
 IPart=  2 Atom   2 batch   23 overlaps   10 atoms,     7 shells and     0 DB shells.   NGrid=       604
 Pruned (  99, 590) grid will be used in numerical quadrature.
 IPart=  6 Atom number   3 atomic number  6 has       23114 grid points.
 IPart=  6 Atom   3 batch    1 overlaps   10 atoms,   113 shells and    10 DB shells.   NGrid=      2408
 Symmetry reduced    86 angular points to    86 for atom    3.
 Pruned (  99, 590) grid will be used in numerical quadrature.
 Pruned (  99, 590) grid will be used in numerical quadrature.
 IPart=  3 Atom number   3 atomic number  6 has       23114 grid points.
 IPart=  4 Atom number   3 atomic number  6 has       23114 grid points.
 IPart=  3 Atom   3 batch    2 overlaps   10 atoms,   113 shells and    10 DB shells.   NGrid=      2522
 IPart=  4 Atom   3 batch    3 overlaps   10 atoms,   113 shells and    10 DB shells.   NGrid=      2114
 Symmetry reduced   194 angular points to   194 for atom    3.
 Symmetry reduced   302 angular points to   302 for atom    3.
 Pruned (  99, 590) grid will be used in numerical quadrature.
 Pruned (  99, 590) grid will be used in numerical quadrature.
 IPart=  2 Atom number   3 atomic number  6 has       23114 grid points.
 IPart=  5 Atom number   3 atomic number  6 has       23114 grid points.
 IPart=  2 Atom   3 batch    5 overlaps   10 atoms,   113 shells and    10 DB shells.   NGrid=      1180
 IPart=  5 Atom   3 batch    4 overlaps   10 atoms,   113 shells and    10 DB shells.   NGrid=      1180
 Symmetry reduced   590 angular points to   590 for atom    3.
 Symmetry reduced   590 angular points to   590 for atom    3.
 Pruned (  99, 590) grid will be used in numerical quadrature.
 IPart=  7 Atom number   3 atomic number  6 has       23114 grid points.
 IPart=  7 Atom   3 batch    6 overlaps   10 atoms,   113 shells and    10 DB shells.   NGrid=      1180
 Symmetry reduced   590 angular points to   590 for atom    3.
 Pruned (  99, 590) grid will be used in numerical quadrature.
 IPart=  1 Atom number   3 atomic number  6 has       23114 grid points.
 IPart=  1 Atom   3 batch    7 overlaps   10 atoms,   115 shells and    10 DB shells.   NGrid=      1180
 Symmetry reduced   590 angular points to   590 for atom    3.
 Pruned (  99, 590) grid will be used in numerical quadrature.
 IPart=  0 Atom number   3 atomic number  6 has       23114 grid points.
 IPart=  0 Atom   3 batch    8 overlaps   10 atoms,   115 shells and    10 DB shells.   NGrid=      1180
 Symmetry reduced   590 angular points to   590 for atom    3.
 IPart=  7 Atom   3 batch    9 overlaps   10 atoms,   115 shells and    10 DB shells.   NGrid=      1180
 IPart=  2 Atom   3 batch   10 overlaps   10 atoms,   115 shells and    10 DB shells.   NGrid=      1180
 IPart=  5 Atom   3 batch   11 overlaps   10 atoms,   114 shells and    10 DB shells.   NGrid=      1180
 IPart=  0 Atom   3 batch   12 overlaps   10 atoms,   114 shells and    10 DB shells.   NGrid=       590
 IPart=  1 Atom   3 batch   13 overlaps   10 atoms,   114 shells and    10 DB shells.   NGrid=       604
 Symmetry reduced   302 angular points to   302 for atom    3.
 IPart=  0 Atom   3 batch   14 overlaps   10 atoms,   114 shells and    10 DB shells.   NGrid=       604
 Symmetry reduced   302 angular points to   302 for atom    3.
 IPart=  1 Atom   3 batch   15 overlaps   10 atoms,   109 shells and    10 DB shells.   NGrid=       604
 IPart=  4 Atom   3 batch   16 overlaps   10 atoms,   102 shells and    10 DB shells.   NGrid=       604
 IPart=  6 Atom   3 batch   17 overlaps   10 atoms,    82 shells and    10 DB shells.   NGrid=       604
 Symmetry reduced   302 angular points to   302 for atom    3.
 IPart=  1 Atom   3 batch   18 overlaps   10 atoms,    66 shells and    10 DB shells.   NGrid=       604
 IPart=  5 Atom   3 batch   19 overlaps   10 atoms,    45 shells and    10 DB shells.   NGrid=       604
 Symmetry reduced   302 angular points to   302 for atom    3.
 IPart=  0 Atom   3 batch   20 overlaps   10 atoms,    30 shells and     5 DB shells.   NGrid=       604
 IPart=  6 Atom   3 batch   21 overlaps   10 atoms,    15 shells and     0 DB shells.   NGrid=       604
 IPart=  3 Atom   3 batch   22 overlaps   10 atoms,     5 shells and     0 DB shells.   NGrid=       604
 Symmetry reduced   302 angular points to   302 for atom    3.
 Pruned (  99, 590) grid will be used in numerical quadrature.
 IPart=  1 Atom number   4 atomic number  6 has       23114 grid points.
 IPart=  1 Atom   4 batch    1 overlaps   10 atoms,   105 shells and    10 DB shells.   NGrid=      2408
 Symmetry reduced    86 angular points to    86 for atom    4.
 Pruned (  99, 590) grid will be used in numerical quadrature.
 Pruned (  99, 590) grid will be used in numerical quadrature.
 IPart=  4 Atom number   4 atomic number  6 has       23114 grid points.
 IPart=  6 Atom number   4 atomic number  6 has       23114 grid points.
 IPart=  4 Atom   4 batch    2 overlaps   10 atoms,   106 shells and    10 DB shells.   NGrid=      2522
 IPart=  6 Atom   4 batch    3 overlaps   10 atoms,   108 shells and    10 DB shells.   NGrid=      2114
 Pruned (  99, 590) grid will be used in numerical quadrature.
 Symmetry reduced   194 angular points to   194 for atom    4.
 IPart=  0 Atom number   4 atomic number  6 has       23114 grid points.
 Pruned (  99, 590) grid will be used in numerical quadrature.
 IPart=  0 Atom   4 batch    4 overlaps   10 atoms,   108 shells and    10 DB shells.   NGrid=      1180
 IPart=  2 Atom number   4 atomic number  6 has       23114 grid points.
 Pruned (  99, 590) grid will be used in numerical quadrature.
 Symmetry reduced   590 angular points to   590 for atom    4.
 IPart=  5 Atom number   4 atomic number  6 has       23114 grid points.
 IPart=  2 Atom   4 batch    5 overlaps   10 atoms,   110 shells and    10 DB shells.   NGrid=      1180
 IPart=  5 Atom   4 batch    6 overlaps   10 atoms,   110 shells and    10 DB shells.   NGrid=      1180
 Symmetry reduced   302 angular points to   302 for atom    4.
 Symmetry reduced   590 angular points to   590 for atom    4.
 Symmetry reduced   590 angular points to   590 for atom    4.
 Pruned (  99, 590) grid will be used in numerical quadrature.
 IPart=  3 Atom number   4 atomic number  6 has       23114 grid points.
 IPart=  3 Atom   4 batch    7 overlaps   10 atoms,   110 shells and    10 DB shells.   NGrid=      1180
 Symmetry reduced   590 angular points to   590 for atom    4.
 Pruned (  99, 590) grid will be used in numerical quadrature.
 IPart=  7 Atom number   4 atomic number  6 has       23114 grid points.
 IPart=  7 Atom   4 batch    8 overlaps   10 atoms,   111 shells and    10 DB shells.   NGrid=      1180
 Symmetry reduced   590 angular points to   590 for atom    4.
 IPart=  2 Atom   4 batch    9 overlaps   10 atoms,   114 shells and    10 DB shells.   NGrid=      1180
 IPart=  5 Atom   4 batch   10 overlaps   10 atoms,   114 shells and    10 DB shells.   NGrid=      1180
 IPart=  0 Atom   4 batch   11 overlaps   10 atoms,   113 shells and    10 DB shells.   NGrid=      1180
 IPart=  7 Atom   4 batch   12 overlaps   10 atoms,   113 shells and    10 DB shells.   NGrid=       590
 IPart=  3 Atom   4 batch   13 overlaps   10 atoms,   114 shells and    10 DB shells.   NGrid=       604
 Symmetry reduced   302 angular points to   302 for atom    4.
 IPart=  7 Atom   4 batch   14 overlaps   10 atoms,   114 shells and    10 DB shells.   NGrid=       604
 Symmetry reduced   302 angular points to   302 for atom    4.
 IPart=  3 Atom   4 batch   15 overlaps   10 atoms,   110 shells and    10 DB shells.   NGrid=       604
 IPart=  6 Atom   4 batch   16 overlaps   10 atoms,   102 shells and    10 DB shells.   NGrid=       604
 IPart=  1 Atom   4 batch   17 overlaps   10 atoms,    87 shells and    10 DB shells.   NGrid=       604
 Symmetry reduced   302 angular points to   302 for atom    4.
 IPart=  3 Atom   4 batch   18 overlaps   10 atoms,    71 shells and    10 DB shells.   NGrid=       604
 IPart=  1 Atom   4 batch   19 overlaps   10 atoms,    46 shells and    10 DB shells.   NGrid=       604
 IPart=  5 Atom   4 batch   20 overlaps   10 atoms,    33 shells and     5 DB shells.   NGrid=       604
 Symmetry reduced   302 angular points to   302 for atom    4.
 IPart=  4 Atom   4 batch   21 overlaps   10 atoms,    15 shells and     0 DB shells.   NGrid=       604
 Symmetry reduced   302 angular points to   302 for atom    4.
 IPart=  2 Atom   4 batch   22 overlaps   10 atoms,     6 shells and     0 DB shells.   NGrid=       604
 Symmetry reduced   302 angular points to   302 for atom    4.
 Pruned (  99, 590) grid will be used in numerical quadrature.
 IPart=  7 Atom number   5 atomic number  6 has       23114 grid points.
 IPart=  7 Atom   5 batch    1 overlaps   10 atoms,   112 shells and    10 DB shells.   NGrid=      2408
 Symmetry reduced    86 angular points to    86 for atom    5.
 Pruned (  99, 590) grid will be used in numerical quadrature.
 IPart=  1 Atom number   5 atomic number  6 has       23114 grid points.
 IPart=  1 Atom   5 batch    2 overlaps   10 atoms,   112 shells and    10 DB shells.   NGrid=      2522
 Symmetry reduced   194 angular points to   194 for atom    5.
 Pruned (  99, 590) grid will be used in numerical quadrature.
 IPart=  5 Atom number   5 atomic number  6 has       23114 grid points.
 IPart=  5 Atom   5 batch    3 overlaps   10 atoms,   113 shells and    10 DB shells.   NGrid=      2114
 Symmetry reduced   302 angular points to   302 for atom    5.
 Pruned (  99, 590) grid will be used in numerical quadrature.
 Pruned (  99, 590) grid will be used in numerical quadrature.
 IPart=  3 Atom number   5 atomic number  6 has       23114 grid points.
 IPart=  2 Atom number   5 atomic number  6 has       23114 grid points.
 IPart=  3 Atom   5 batch    4 overlaps   10 atoms,   114 shells and    10 DB shells.   NGrid=      1180
 IPart=  2 Atom   5 batch    6 overlaps   10 atoms,   115 shells and    10 DB shells.   NGrid=      1180
 Symmetry reduced   590 angular points to   590 for atom    5.
 Symmetry reduced   590 angular points to   590 for atom    5.
 Pruned (  99, 590) grid will be used in numerical quadrature.
 IPart=  4 Atom number   5 atomic number  6 has       23114 grid points.
 IPart=  4 Atom   5 batch    5 overlaps   10 atoms,   115 shells and    10 DB shells.   NGrid=      1180
 Symmetry reduced   590 angular points to   590 for atom    5.
 Pruned (  99, 590) grid will be used in numerical quadrature.
 IPart=  0 Atom number   5 atomic number  6 has       23114 grid points.
 IPart=  0 Atom   5 batch    7 overlaps   10 atoms,   115 shells and    10 DB shells.   NGrid=      1180
 Symmetry reduced   590 angular points to   590 for atom    5.
 Pruned (  99, 590) grid will be used in numerical quadrature.
 IPart=  6 Atom number   5 atomic number  6 has       23114 grid points.
 IPart=  6 Atom   5 batch    8 overlaps   10 atoms,   115 shells and    10 DB shells.   NGrid=      1180
 Symmetry reduced   590 angular points to   590 for atom    5.
 IPart=  3 Atom   5 batch    9 overlaps   10 atoms,   115 shells and    10 DB shells.   NGrid=      1180
 IPart=  4 Atom   5 batch   10 overlaps   10 atoms,   115 shells and    10 DB shells.   NGrid=      1180
 IPart=  2 Atom   5 batch   11 overlaps   10 atoms,   114 shells and    10 DB shells.   NGrid=      1180
 IPart=  0 Atom   5 batch   12 overlaps   10 atoms,   114 shells and    10 DB shells.   NGrid=       590
 IPart=  6 Atom   5 batch   13 overlaps   10 atoms,   114 shells and    10 DB shells.   NGrid=       604
 Symmetry reduced   302 angular points to   302 for atom    5.
 IPart=  0 Atom   5 batch   14 overlaps   10 atoms,   112 shells and    10 DB shells.   NGrid=       604
 Symmetry reduced   302 angular points to   302 for atom    5.
 IPart=  6 Atom   5 batch   15 overlaps   10 atoms,   108 shells and    10 DB shells.   NGrid=       604
 IPart=  5 Atom   5 batch   16 overlaps   10 atoms,   100 shells and    10 DB shells.   NGrid=       604
 IPart=  7 Atom   5 batch   17 overlaps   10 atoms,    89 shells and    10 DB shells.   NGrid=       604
 Symmetry reduced   302 angular points to   302 for atom    5.
 IPart=  6 Atom   5 batch   18 overlaps   10 atoms,    67 shells and    10 DB shells.   NGrid=       604
 IPart=  2 Atom   5 batch   19 overlaps   10 atoms,    52 shells and    10 DB shells.   NGrid=       604
 Symmetry reduced   302 angular points to   302 for atom    5.
 IPart=  7 Atom   5 batch   20 overlaps   10 atoms,    31 shells and     7 DB shells.   NGrid=       604
 IPart=  4 Atom   5 batch   21 overlaps   10 atoms,    14 shells and     0 DB shells.   NGrid=       604
 Symmetry reduced   302 angular points to   302 for atom    5.
 IPart=  0 Atom   5 batch   22 overlaps   10 atoms,     6 shells and     0 DB shells.   NGrid=       604
 Pruned (  99, 590) grid will be used in numerical quadrature.
 Pruned (  99, 590) grid will be used in numerical quadrature.
 IPart=  3 Atom number   6 atomic number  1 has       23164 grid points.
 IPart=  5 Atom number   6 atomic number  1 has       23164 grid points.
 IPart=  3 Atom   6 batch    1 overlaps   10 atoms,   105 shells and    10 DB shells.   NGrid=      2838
 IPart=  5 Atom   6 batch    2 overlaps   10 atoms,   106 shells and    10 DB shells.   NGrid=      1552
 Pruned (  99, 590) grid will be used in numerical quadrature.
 Symmetry reduced   194 angular points to   194 for atom    6.
 IPart=  1 Atom number   6 atomic number  1 has       23164 grid points.
 Symmetry reduced    86 angular points to    86 for atom    6.
 IPart=  1 Atom   6 batch    3 overlaps   10 atoms,   110 shells and    10 DB shells.   NGrid=      2416
 Symmetry reduced   302 angular points to   302 for atom    6.
 Pruned (  99, 590) grid will be used in numerical quadrature.
 IPart=  7 Atom number   6 atomic number  1 has       23164 grid points.
 IPart=  7 Atom   6 batch    4 overlaps   10 atoms,   111 shells and    10 DB shells.   NGrid=      1180
 Symmetry reduced   590 angular points to   590 for atom    6.
 Pruned (  99, 590) grid will be used in numerical quadrature.
 IPart=  2 Atom number   6 atomic number  1 has       23164 grid points.
 IPart=  2 Atom   6 batch    5 overlaps   10 atoms,   111 shells and    10 DB shells.   NGrid=      1180
 Symmetry reduced   590 angular points to   590 for atom    6.
 Pruned (  99, 590) grid will be used in numerical quadrature.
 IPart=  4 Atom number   6 atomic number  1 has       23164 grid points.
 IPart=  4 Atom   6 batch    6 overlaps   10 atoms,   113 shells and    10 DB shells.   NGrid=      1180
 Symmetry reduced   590 angular points to   590 for atom    6.
 Pruned (  99, 590) grid will be used in numerical quadrature.
 IPart=  0 Atom number   6 atomic number  1 has       23164 grid points.
 IPart=  0 Atom   6 batch    7 overlaps   10 atoms,   113 shells and    10 DB shells.   NGrid=      1180
 Symmetry reduced   590 angular points to   590 for atom    6.
 Pruned (  99, 590) grid will be used in numerical quadrature.
 IPart=  6 Atom number   6 atomic number  1 has       23164 grid points.
 IPart=  6 Atom   6 batch    8 overlaps   10 atoms,   113 shells and    10 DB shells.   NGrid=      1180
 Symmetry reduced   590 angular points to   590 for atom    6.
 IPart=  7 Atom   6 batch    9 overlaps   10 atoms,   114 shells and    10 DB shells.   NGrid=      1180
 IPart=  2 Atom   6 batch   10 overlaps   10 atoms,   114 shells and    10 DB shells.   NGrid=      1180
 IPart=  4 Atom   6 batch   11 overlaps   10 atoms,   115 shells and    10 DB shells.   NGrid=      1180
 IPart=  0 Atom   6 batch   12 overlaps   10 atoms,   115 shells and    10 DB shells.   NGrid=      1180
 IPart=  6 Atom   6 batch   13 overlaps   10 atoms,   115 shells and    10 DB shells.   NGrid=       604
 Symmetry reduced   302 angular points to   302 for atom    6.
 IPart=  5 Atom   6 batch   14 overlaps   10 atoms,   115 shells and    10 DB shells.   NGrid=       604
 Symmetry reduced   302 angular points to   302 for atom    6.
 IPart=  5 Atom   6 batch   15 overlaps   10 atoms,   111 shells and    10 DB shells.   NGrid=       604
 IPart=  6 Atom   6 batch   16 overlaps   10 atoms,   107 shells and    10 DB shells.   NGrid=       604
 IPart=  1 Atom   6 batch   17 overlaps   10 atoms,    95 shells and    10 DB shells.   NGrid=       604
 IPart=  6 Atom   6 batch   18 overlaps   10 atoms,    70 shells and    10 DB shells.   NGrid=       604
 IPart=  5 Atom   6 batch   19 overlaps   10 atoms,    47 shells and    10 DB shells.   NGrid=       604
 IPart=  5 Atom   6 batch   20 overlaps   10 atoms,    28 shells and     5 DB shells.   NGrid=       604
 IPart=  6 Atom   6 batch   21 overlaps   10 atoms,    13 shells and     0 DB shells.   NGrid=       604
 IPart=  7 Atom   6 batch   22 overlaps   10 atoms,     4 shells and     0 DB shells.   NGrid=       302
 Symmetry reduced   302 angular points to   302 for atom    6.
 Pruned (  99, 590) grid will be used in numerical quadrature.
 IPart=  4 Atom number   7 atomic number  1 has       23164 grid points.
 IPart=  4 Atom   7 batch    1 overlaps   10 atoms,   105 shells and    10 DB shells.   NGrid=      2838
 Symmetry reduced    86 angular points to    86 for atom    7.
 Pruned (  99, 590) grid will be used in numerical quadrature.
 IPart=  5 Atom number   7 atomic number  1 has       23164 grid points.
 IPart=  5 Atom   7 batch    2 overlaps   10 atoms,   106 shells and    10 DB shells.   NGrid=      1552
 Symmetry reduced   194 angular points to   194 for atom    7.
[...]
                           ! (Angstroms and Degrees)  !
 --------------------------                            --------------------------
 ! Name  Definition              Value          Derivative Info.                !
 --------------------------------------------------------------------------------
 ! R1    R(1,5)                  1.2329         -DE/DX =    0.0                 !
 ! R2    R(2,5)                  1.2311         -DE/DX =    0.0                 !
 ! R3    R(3,4)                  1.5229         -DE/DX =    0.0                 !
 ! R4    R(3,5)                  1.5504         -DE/DX =    0.0                 !
 ! R5    R(3,6)                  1.0869         -DE/DX =    0.0                 !
 ! R6    R(3,7)                  1.0869         -DE/DX =    0.0                 !
 ! R7    R(4,8)                  1.0834         -DE/DX =    0.0                 !
 ! R8    R(4,9)                  1.0834         -DE/DX =    0.0                 !
 ! R9    R(4,10)                 1.09           -DE/DX =    0.0                 !
 ! A1    A(4,3,5)              115.7325         -DE/DX =    0.0                 !
 ! A2    A(4,3,6)              110.3726         -DE/DX =    0.0                 !
 ! A3    A(4,3,7)              110.3726         -DE/DX =    0.0                 !
 ! A4    A(5,3,6)              107.0711         -DE/DX =    0.0                 !
 ! A5    A(5,3,7)              107.0711         -DE/DX =    0.0                 !
 ! A6    A(6,3,7)              105.6776         -DE/DX =    0.0                 !
 ! A7    A(3,4,8)              110.9514         -DE/DX =    0.0                 !
 ! A8    A(3,4,9)              110.9514         -DE/DX =    0.0                 !
 ! A9    A(3,4,10)             111.2107         -DE/DX =    0.0                 !
 ! A10   A(8,4,9)              106.9014         -DE/DX =    0.0                 !
 ! A11   A(8,4,10)             108.3354         -DE/DX =    0.0                 !
 ! A12   A(9,4,10)             108.3354         -DE/DX =    0.0                 !
 ! A13   A(1,5,2)              128.6594         -DE/DX =    0.0                 !
 ! A14   A(1,5,3)              114.4485         -DE/DX =    0.0                 !
 ! A15   A(2,5,3)              116.8921         -DE/DX =    0.0                 !
 ! D1    D(5,3,4,8)            -59.3412         -DE/DX =    0.0                 !
 ! D2    D(5,3,4,9)             59.3412         -DE/DX =    0.0                 !
 ! D3    D(5,3,4,10)           180.0            -DE/DX =    0.0                 !
 ! D4    D(6,3,4,8)            178.883          -DE/DX =    0.0                 !
 ! D5    D(6,3,4,9)            -62.4347         -DE/DX =    0.0                 !
 ! D6    D(6,3,4,10)            58.2241         -DE/DX =    0.0                 !
 ! D7    D(7,3,4,8)             62.4347         -DE/DX =    0.0                 !
 ! D8    D(7,3,4,9)           -178.883          -DE/DX =    0.0                 !
 ! D9    D(7,3,4,10)           -58.2241         -DE/DX =    0.0                 !
 ! D10   D(4,3,5,1)           -180.0            -DE/DX =    0.0                 !
 ! D11   D(4,3,5,2)              0.0            -DE/DX =    0.0                 !
 ! D12   D(6,3,5,1)            -56.4775         -DE/DX =    0.0                 !
 ! D13   D(6,3,5,2)            123.5225         -DE/DX =    0.0                 !
 ! D14   D(7,3,5,1)             56.4775         -DE/DX =    0.0                 !
 ! D15   D(7,3,5,2)           -123.5225         -DE/DX =    0.0                 !
 --------------------------------------------------------------------------------
 GradGradGradGradGradGradGradGradGradGradGradGradGradGradGradGradGradGrad

 Leave Link  103 at Sun Sep 28 22:26:43 2025, MaxMem=  1572864000 cpu:               0.1 elap:               0.0
 (Enter /software/sse/easybuild/prefix/software/Gaussian/16.C.01-avx2-nsc1/g16/l9999.exe)

 ----------------------------------------------------------------------

 Electric dipole moment (input orientation):
 (Debye = 10**-18 statcoulomb cm , SI units = C m)
                  (au)            (Debye)         (10**-30 SI)
   Tot        0.229056D+01      0.582202D+01      0.194202D+02
   x         -0.216816D+01     -0.551092D+01     -0.183825D+02
   y         -0.738707D+00     -0.187761D+01     -0.626302D+01
   z         -0.663528D-02     -0.168652D-01     -0.562562D-01

 Dipole polarizability, Alpha (input orientation).
 (esu units = cm**3 , SI units = C**2 m**2 J**-1)
 Alpha(0;0):
               (au)            (10**-24 esu)      (10**-40 SI)
   iso        0.487357D+02      0.722188D+01      0.803543D+01
   aniso      0.138525D+02      0.205273D+01      0.228396D+01
   xx         0.550013D+02      0.815035D+01      0.906849D+01
   yx        -0.135688D+01     -0.201068D+00     -0.223719D+00
   yy         0.513130D+02      0.760381D+01      0.846038D+01
   zx        -0.948872D-01     -0.140608D-01     -0.156448D-01
   zy         0.253740D+00      0.376004D-01      0.418361D-01
   zz         0.398927D+02      0.591149D+01      0.657742D+01

 First dipole hyperpolarizability, Beta (input orientation).
 ||, _|_  parallel and perpendicular components, (z) with respect to z axis,
 vector components x,y,z.  Values do not include the 1/n! factor of 1/2.
 (esu units = statvolt**-1 cm**4 , SI units = C**3 m**3 J**-2)
 Beta(0;0,0):
               (au)            (10**-30 esu)      (10**-50 SI)
   || (z)    -0.434028D+00     -0.374966D-02     -0.139165D-02
   _|_(z)    -0.144676D+00     -0.124989D-02     -0.463883D-03
   x         -0.301079D+03     -0.260108D+01     -0.965367D+00
   y         -0.160145D+03     -0.138353D+01     -0.513482D+00
   z         -0.217014D+01     -0.187483D-01     -0.695825D-02
   ||         0.682054D+02      0.589242D+00      0.218691D+00
   xxx       -0.770401D+02     -0.665566D+00     -0.247018D+00
   xxy        0.309642D+02      0.267506D+00      0.992823D-01
   yxy       -0.200071D+02     -0.172845D+00     -0.641498D-01
   yyy       -0.812061D+02     -0.701558D+00     -0.260376D+00
   xxz        0.976760D+00      0.843844D-02      0.313184D-02
   yxz       -0.510043D+00     -0.440637D-02     -0.163538D-02
   yyz       -0.154002D+01     -0.133046D-01     -0.493786D-02
   zxz       -0.331239D+01     -0.286165D-01     -0.106207D-01
   zyz       -0.313964D+01     -0.271240D-01     -0.100668D-01
   zzz       -0.160119D+00     -0.138330D-02     -0.513399D-03

 ----------------------------------------------------------------------

 Dipole orientation:
     8          0.62970540         -1.98869008         -2.55061712
     8         -0.60672474          1.91896380         -1.64849628
     6          0.28443435         -0.89748426          1.73336504
     6         -0.38692069          1.22428795          3.55801012
     6          0.07636182         -0.23988509         -1.11421741
     1         -0.91533669         -2.53141176          2.06411666
     1          2.20572454         -1.54386929          2.06411666
     1          0.82377118          2.84953041          3.26822055
     1         -2.31214807          1.85728667          3.26822055
     1         -0.19349092          0.61296625          5.51539901

 Electric dipole moment (dipole orientation):
 (Debye = 10**-18 statcoulomb cm , SI units = C m)
                  (au)            (Debye)         (10**-30 SI)
   Tot        0.229056D+01      0.582202D+01      0.194202D+02
   x          0.000000D+00      0.000000D+00      0.000000D+00
   y          0.000000D+00      0.000000D+00      0.000000D+00
   z          0.229056D+01      0.582202D+01      0.194202D+02

 Dipole polarizability, Alpha (dipole orientation).
 (esu units = cm**3 , SI units = C**2 m**2 J**-1)
 Alpha(0;0):
               (au)            (10**-24 esu)      (10**-40 SI)
   iso        0.487357D+02      0.722188D+01      0.803543D+01
   aniso      0.138525D+02      0.205273D+01      0.228396D+01
   xx         0.410375D+02      0.608113D+01      0.676617D+01
   yx        -0.363673D+01     -0.538908D+00     -0.599616D+00
   yy         0.513804D+02      0.761380D+01      0.847149D+01
   zx        -0.663759D+00     -0.983590D-01     -0.109439D+00
   zy         0.209777D+01      0.310857D+00      0.345875D+00
   zz         0.537891D+02      0.797072D+01      0.886862D+01

 First dipole hyperpolarizability, Beta (dipole orientation).
 ||, _|_  parallel and perpendicular components, (z) with respect to z axis,
 vector components x,y,z.  Values do not include the 1/n! factor of 1/2.
 (esu units = statvolt**-1 cm**4 , SI units = C**3 m**3 J**-2)
 Beta(0;0,0):
               (au)            (10**-30 esu)      (10**-50 SI)
   || (z)     0.673287D+02      0.581668D+00      0.215880D+00
   _|_(z)     0.224429D+02      0.193889D+00      0.719601D-01
   x          0.164419D+02      0.142045D+00      0.527187D-01
   y         -0.519635D+02     -0.448924D+00     -0.166614D+00
   z          0.336644D+03      0.290834D+01      0.107940D+01
   ||         0.682054D+02      0.589242D+00      0.218691D+00
   xxx        0.264048D+01      0.228117D-01      0.846632D-02
   xxy       -0.475898D+01     -0.411139D-01     -0.152590D-01
   yxy        0.994101D+01      0.858826D-01      0.318745D-01
   yyy       -0.350040D+02     -0.302407D+00     -0.112235D+00
   xxz        0.929657D+01      0.803151D-01      0.298081D-01
   yxz       -0.163485D+02     -0.141238D+00     -0.524192D-01
   yyz        0.557920D+02      0.482000D+00      0.178889D+00
   zxz       -0.710086D+01     -0.613459D-01     -0.227679D-01
   zyz        0.224418D+02      0.193880D+00      0.719565D-01
   zzz        0.471259D+02      0.407131D+00      0.151103D+00

 ----------------------------------------------------------------------

 Test job not archived.
 1\1\NSC-N144\Freq\RHF\Aug-CC-pVTZ\C3H5O2(1-)\X_DAVVA\28-Sep-2025\0\\#P
  Geom=AllCheck Guess=TCheck SCRF=Check Test GenChk RHF/Aug-CC-pVTZ Fre
 q\\propanoate\\-1,1\O,1.6335864593,-0.6093280451,-0.0200603888\O,0.482
 2811441,1.2891771807,0.0261088074\C,-0.7075776969,-0.7672864287,-0.013
 3485393\C,-2.0013201776,0.0357619028,0.0096741869\C,0.601073826,0.0640
 804832,-0.0009811369\H,-0.6729242496,-1.403805274,-0.893667664\H,-0.66
 54243908,-1.4413741242,0.8382075309\H,-2.0544984066,0.6594043451,0.893
 9185826\H,-2.062033969,0.6971520444,-0.8462013224\H,-2.8723565287,-0.6
 193776644,-0.0007654746\\Version=ES64L-G16RevC.01\State=1-A'\HF=-266.3
 792795\RMSD=9.834e-09\RMSF=5.326e-06\ZeroPoint=0.0816518\Thermal=0.086
 9866\ETot=-266.2922929\HTot=-266.2913487\GTot=-266.3269716\Dipole=-2.1
 68163,-0.7387074,-0.0066353\DipoleDeriv=-1.7748505,0.6162644,0.0184574
 ,0.3951406,-1.1236368,-0.0130767,0.0136606,-0.0140343,-0.6000624,-0.92
 60768,-0.0674491,0.0001266,0.1538049,-1.8757608,-0.0292305,0.0049261,-
 0.0282724,-0.5596127,-0.1213886,-0.2568621,-0.0039185,-0.3063004,0.052
 8654,-0.0031763,-0.0049909,-0.0033904,0.2603843,0.0935446,0.1459512,0.
 0034493,0.1282633,0.1424914,-0.0009127,0.0030656,-0.0009893,0.1589254,
 1.9914229,-0.3853437,-0.0160922,-0.3423077,2.1201983,0.0430132,-0.0151
 587,0.0431995,0.206684,-0.0179757,0.0238058,0.0149333,0.0188653,-0.071
 0448,-0.1189413,-0.0165215,-0.168267,-0.1378861,-0.0179624,0.0259195,-
 0.0148391,0.0191928,-0.0836053,0.1211328,0.0163626,0.1704079,-0.125338
 8,0.0256011,0.0174071,-0.0024845,0.0615775,-0.0369907,-0.1114559,0.050
 4775,-0.1174241,-0.1310164,0.0251891,0.0183439,0.0019505,0.0647161,-0.
 0470681,0.1145437,-0.0490474,0.120904,-0.120527,-0.2775037,-0.138037,-
 0.0015827,-0.1929523,-0.0774486,-0.0018962,-0.002774,-0.002134,0.04844
 96\Polar=55.001277,-1.356877,51.3130322,-0.0948872,0.2537403,39.892719
 9\PolarDeriv=6.0777804,-4.0293539,2.2974893,-0.0912008,0.0099105,2.430
 6012,-2.9249183,2.7384946,-2.5935873,0.0058386,-0.014158,-1.4107783,-0
 .065764,0.0120716,-0.0195103,2.7718827,-1.0759964,-0.1118333,-0.901843
 1,0.4200462,-0.7257926,0.0123143,0.0028619,-0.3396801,0.6828202,-0.825
 1927,9.1849251,-0.0136037,0.0818063,2.5652868,0.0202552,-0.0105222,0.0
 716413,0.1775401,3.0139786,0.1863269,-2.3942427,-6.4319038,-2.0458842,
 -0.1356969,0.0238209,-0.6184455,-7.5957418,-1.4791323,2.9803319,0.0429
 199,-0.1778924,5.2583312,-0.1621135,0.041974,-0.1959472,-0.8880987,6.2
 038623,0.3939128,0.7660444,5.6792515,0.22802,0.1272737,-0.0516234,0.33
 2348,7.6267635,2.2185199,-0.9536408,-0.0395274,0.2179921,-5.7301184,0.
 1740156,-0.0309637,0.2259616,1.3707355,-5.7000843,-0.3852654,5.7506502
 ,7.1634972,2.050171,0.1305427,0.0113509,-0.1205685,6.8899692,1.5195796
 ,-4.1438921,-0.0033038,-0.0550192,-0.8244696,0.1257013,-0.0056289,-0.0
 51607,0.1312664,-1.0877958,-0.0656693,0.2490205,0.0333972,0.4133526,-0
 .9026556,0.0388224,0.0649524,-0.2382651,0.1326469,-3.9063415,-0.044671
 ,-2.4759259,-2.8397655,-1.6448755,0.0241695,-3.4001832,-0.000812,-3.69
 85299,-5.0863113,0.2788333,-0.0064756,0.4475061,0.9017023,-0.0554327,0
 .0873519,-0.3086937,0.1545904,-4.276343,0.028261,2.5798408,-2.8319651,
 1.6308936,-0.0503196,3.5379564,0.0192739,-3.6485329,4.6434437,-0.37992
 32,0.1490627,-0.3731305,0.7678341,-0.263886,-0.4497951,0.6185143,-0.88
 98325,2.928671,-0.5494908,2.0768909,3.0758664,1.7542715,-0.7331194,2.5
 159226,-1.2167058,3.0424449,5.1805541,-0.4084007,0.1913709,-0.4195749,
 -0.7713485,0.2912626,-0.455397,0.7041907,-0.9655493,3.2262976,0.582303
 4,-2.2015154,3.0959291,-1.7429406,0.7698173,-2.6433034,-1.1807417,3.04
 42939,-4.7576453,-9.0379198,-3.1688929,-1.8721573,-0.0387647,-0.007086
 8,-0.9313677,-5.4546401,-2.6041253,-2.4464213,-0.0087261,-0.0320193,-0
 .3583171,-0.0894436,-0.0174785,-0.0409308,-1.1843407,-0.0936411,0.0024
 871\HyperPolar=-77.0400958,30.964169,-20.007053,-81.2061376,0.9767598,
 -0.510043,-1.5400206,-3.3123909,-3.1396383,-0.1601188\Quadrupole=-5.18
 74806,-0.8919398,6.0794204,0.7687025,0.065482,-0.1546346\PG=CS [SG(C3H
 1O2),X(H4)]\NImag=0\\0.55482727,-0.28341268,0.30769366,-0.00838961,0.0
 0709542,0.03737198,0.00200542,0.08809483,0.00205499,0.13331537,0.08622
 086,-0.08996784,-0.00308976,-0.06271442,0.74205378,0.00201433,-0.00309
 787,0.03517770,-0.00179008,0.01562888,0.03444939,-0.06257162,-0.009312
 11,0.00016886,0.00216356,-0.01058339,-0.00011015,0.51512633,0.02193548
 ,0.01109191,-0.00035480,-0.03437674,-0.04932433,-0.00156629,-0.0340044
 3,0.58346699,0.00084670,-0.00021948,0.02306024,-0.00062629,-0.00166933
 ,0.02970853,-0.00036170,-0.00025345,0.60193532,-0.00789410,-0.00160153
 ,0.00001189,0.00009408,0.00332300,0.00006099,-0.18411762,0.05847414,0.
 00166054,0.54171847,-0.01057802,-0.00074058,-0.00003258,-0.00099066,-0
 .00306126,-0.00000857,0.05757334,-0.13590376,-0.00116752,0.03066601,0.
 59203013,-0.00018284,-0.00007145,0.00287229,-0.00003259,-0.00002724,-0
 .00246901,0.00164100,-0.00117141,-0.09360875,0.00101424,-0.00078970,0.
 62229102,-0.47986721,0.20600469,0.00610601,-0.13070793,-0.00297847,0.0
 0007031,-0.13628194,-0.03574505,-0.00066400,-0.02247181,-0.00652482,-0
 .00004844,0.75753594,0.18288856,-0.23593695,-0.00370186,0.02347448,-0.
 59705496,-0.01089379,-0.03323381,-0.10425369,0.00028065,0.01658333,0.0
 2108841,0.00040676,-0.17203754,0.95262364,0.00560456,-0.00380196,-0.10
 190277,0.00064414,-0.01077924,-0.09978826,-0.00060953,0.00029152,-0.11
 054785,0.00045283,0.00050683,-0.00096442,-0.00566044,0.01463736,0.3125
 4636,-0.00079868,0.00105837,0.00398422,-0.00322392,-0.00459837,0.00406
 091,-0.05557652,0.00468003,0.00042375,-0.00126312,0.01938601,0.0283317
 6,0.00434763,-0.01401876,-0.02902627,0.05990291,0.00044401,0.00267763,
 0.00401590,-0.00480322,-0.00394363,0.00392088,0.00364637,-0.14271717,-
 0.12925757,-0.00046519,-0.01086109,-0.01649029,0.00593549,-0.01286890,
 -0.02213687,-0.00795803,0.15338510,-0.00225965,0.00215881,0.00189548,-
 0.00149413,-0.00040211,0.00005987,0.00367437,-0.12703158,-0.23148431,-
 0.00073402,0.00128582,0.00147573,0.00581124,-0.00015037,-0.00044529,-0
 .00684326,0.14059128,0.25128493,-0.00081314,0.00121111,-0.00391269,-0.
 00324767,-0.00441564,-0.00422848,-0.05562320,0.00584110,-0.00167018,-0
 .00149823,0.02058149,-0.02743620,0.00454675,-0.01526402,0.02835195,-0.
 00016691,-0.00035463,-0.00000502,0.06003229,0.00031051,0.00294396,-0.0
 0397398,-0.00489860,-0.00378541,-0.00404625,0.00496868,-0.15398575,0.1
 3258322,-0.00035680,-0.01149282,0.01592575,0.00637174,-0.01381279,0.02
 150771,-0.00050283,0.01485041,-0.01680446,-0.00951605,0.16574781,0.002
 29832,-0.00212345,0.00164361,0.00131164,0.00027376,-0.00007462,-0.0049
 6215,0.13034898,-0.22016905,0.00074476,-0.00202699,0.00234257,-0.00558
 336,-0.00029869,0.00029949,-0.00023570,0.01857233,-0.02579251,0.008067
 47,-0.14422567,0.23879284,0.00045412,-0.00107553,-0.00047530,0.0000464
 0,-0.00163938,-0.00086138,0.00050026,0.01850092,0.02860732,-0.05477544
 ,0.00490419,0.00657072,0.00043488,0.00221019,0.00097481,-0.00608856,0.
 00386158,0.00001413,0.00164038,-0.00065341,-0.00063018,0.05675624,0.00
 036667,0.00050700,0.00030145,-0.00072951,0.00126336,0.00058740,0.00067
 228,-0.01112905,-0.01811379,0.00760526,-0.14435770,-0.12936072,-0.0011
 3622,-0.00148743,0.00020902,0.00405339,-0.00155861,0.00068251,-0.00082
 240,0.00005174,0.00048497,-0.00961676,0.15550205,0.00040169,0.00104383
 ,-0.00002087,-0.00127362,0.00225984,0.00111509,-0.00003839,0.00085684,
 0.00026130,0.01085477,-0.12864506,-0.24212534,-0.00071215,-0.00345017,
 -0.00005255,-0.00006514,-0.00002672,0.00186546,0.00067668,-0.00038452,
 0.00112492,-0.00841021,0.14426037,0.26087853,0.00045458,-0.00110393,0.
 00042366,0.00006451,-0.00169484,0.00079762,0.00025656,0.01971365,-0.02
 777512,-0.05493755,0.00634937,-0.00789901,0.00043278,0.00227996,-0.000
 88101,0.00163966,-0.00067687,0.00059684,-0.00608603,0.00385651,0.00022
 203,-0.00025552,-0.00078236,0.00041495,0.05691306,0.00038132,0.0005641
 6,-0.00027928,-0.00078926,0.00138597,-0.00056867,0.00082448,-0.0118514
 2,0.01757618,0.00923976,-0.15571668,0.13303496,-0.00116800,-0.00162495
 ,-0.00026734,-0.00079656,0.00005784,-0.00052429,0.00403856,-0.00152228
 ,-0.00086459,-0.00091261,0.01418960,-0.01689201,-0.01127660,0.16819609
 ,-0.00038983,-0.00100899,-0.00007849,0.00124923,-0.00223324,0.00097437
 ,0.00007409,-0.00155346,0.00122737,-0.01206177,0.13234352,-0.23060424,
 0.00065856,0.00336242,0.00008707,-0.00071628,0.00034395,0.00111954,0.0
 0030940,-0.00015373,0.00182661,-0.00066616,0.01860025,-0.02499592,0.00
 966894,-0.14818951,0.24802767,-0.00579665,0.00013678,0.00002798,-0.000
 50982,-0.00091934,-0.00001407,-0.02387581,-0.02501911,-0.00044102,-0.2
 1485468,-0.12136691,-0.00195865,0.00203090,0.00711761,0.00014895,0.001
 22751,0.00037049,0.00123951,0.00121577,0.00042025,-0.00123282,0.001287
 24,0.00038966,-0.00184859,0.00151794,0.00045890,0.00187380,0.23775760,
 0.00144328,0.00116704,0.00001949,-0.00226690,0.00243433,0.00004427,0.0
 1944858,0.01460625,0.00024109,-0.12346797,-0.15098466,-0.00145666,0.00
 127819,-0.00667239,-0.00016703,-0.00130325,0.00097842,0.00019437,-0.00
 129952,0.00100511,-0.00014064,-0.01557920,-0.01298096,0.00097759,-0.01
 666491,-0.01367832,-0.00151122,0.13841168,0.16412518,0.00005633,0.0000
 2515,-0.00001917,-0.00004330,0.00003844,0.00084694,0.00052360,0.000433
 65,-0.00038279,-0.00200422,-0.00146576,-0.05920984,0.00002228,-0.00019
 232,0.00076823,0.00008601,0.00046711,0.00002109,-0.00015293,-0.0004280
 7,0.00000614,-0.02512374,-0.01765147,0.00194937,0.02443109,0.01697454,
 0.00241602,0.00220490,0.00179874,0.05360400\\-0.00000056,0.00000012,0.
 ,0.00000031,0.00000045,0.,-0.00000081,-0.00000562,-0.00000012,-0.00000
 036,0.00000270,0.00000006,0.00000045,0.00000107,0.00000002,0.00000078,
 -0.00000037,0.00001524,0.00000065,0.00000029,-0.00001525,-0.00000053,0
 .00000189,-0.00001288,-0.00000042,0.00000132,0.00001296,0.00000049,-0.
 00000186,-0.00000004\\\@


 Children are likely to live up to what you believe of them.
 -- Lady Bird Johnson
 Job cpu time:       0 days  1 hours  3 minutes 36.5 seconds.
 Elapsed time:       0 days  0 hours  8 minutes  0.4 seconds.
 File lengths (MBytes):  RWF=     97 Int=      0 D2E=      0 Chk=     16 Scr=      1
 Normal termination of Gaussian 16 at Sun Sep 28 22:26:43 2025.
