 Entering Gaussian System, Link 0=/software/sse/easybuild/prefix/software/Gaussian/16.C.01-avx2-nsc1/g16/g16.orig
 Input=guanidine.wrap
 Output=guanidine.log
 Initial command:
 /software/sse/easybuild/prefix/software/Gaussian/16.C.01-avx2-nsc1/g16/l1.exe "/scratch/local/Gau-885920.inp" -scrdir="/scratch/local/"
 Entering Link 1 = /software/sse/easybuild/prefix/software/Gaussian/16.C.01-avx2-nsc1/g16/l1.exe PID=    885921.
  
 Copyright (c) 1988-2019, Gaussian, Inc.  All Rights Reserved.
  
 This is part of the Gaussian(R) 16 program.  It is based on
 the Gaussian(R) 09 system (copyright 2009, Gaussian, Inc.),
 the Gaussian(R) 03 system (copyright 2003, Gaussian, Inc.),
 the Gaussian(R) 98 system (copyright 1998, Gaussian, Inc.),
 the Gaussian(R) 94 system (copyright 1995, Gaussian, Inc.),
 the Gaussian 92(TM) system (copyright 1992, Gaussian, Inc.),
 the Gaussian 90(TM) system (copyright 1990, Gaussian, Inc.),
 the Gaussian 88(TM) system (copyright 1988, Gaussian, Inc.),
 the Gaussian 86(TM) system (copyright 1986, Carnegie Mellon
 University), and the Gaussian 82(TM) system (copyright 1983,
 Carnegie Mellon University). Gaussian is a federally registered
 trademark of Gaussian, Inc.
  
 This software contains proprietary and confidential information,
 including trade secrets, belonging to Gaussian, Inc.
  
 This software is provided under written license and may be
 used, copied, transmitted, or stored only in accord with that
 written license.
  
 The following legend is applicable only to US Government
 contracts under FAR:
  
                    RESTRICTED RIGHTS LEGEND
  
 Use, reproduction and disclosure by the US Government is
 subject to restrictions as set forth in subparagraphs (a)
 and (c) of the Commercial Computer Software - Restricted
 Rights clause in FAR 52.227-19.
  
 Gaussian, Inc.
 340 Quinnipiac St., Bldg. 40, Wallingford CT 06492
  
  
 ---------------------------------------------------------------
 Warning -- This program may not be used in any manner that
 competes with the business of Gaussian, Inc. or will provide
 assistance to any competitor of Gaussian, Inc.  The licensee
 of this program is prohibited from giving any competitor of
 Gaussian, Inc. access to this program.  By using this program,
 the user acknowledges that Gaussian, Inc. is engaged in the
 business of creating and licensing software in the field of
 computational chemistry and represents and warrants to the
 licensee that it is not a competitor of Gaussian, Inc. and that
 it will not use this program in any manner prohibited above.
 ---------------------------------------------------------------
  

 Cite this work as:
 Gaussian 16, Revision C.01,
 M. J. Frisch, G. W. Trucks, H. B. Schlegel, G. E. Scuseria, 
 M. A. Robb, J. R. Cheeseman, G. Scalmani, V. Barone, 
 G. A. Petersson, H. Nakatsuji, X. Li, M. Caricato, A. V. Marenich, 
 J. Bloino, B. G. Janesko, R. Gomperts, B. Mennucci, H. P. Hratchian, 
 J. V. Ortiz, A. F. Izmaylov, J. L. Sonnenberg, D. Williams-Young, 
 F. Ding, F. Lipparini, F. Egidi, J. Goings, B. Peng, A. Petrone, 
 T. Henderson, D. Ranasinghe, V. G. Zakrzewski, J. Gao, N. Rega, 
 G. Zheng, W. Liang, M. Hada, M. Ehara, K. Toyota, R. Fukuda, 
 J. Hasegawa, M. Ishida, T. Nakajima, Y. Honda, O. Kitao, H. Nakai, 
 T. Vreven, K. Throssell, J. A. Montgomery, Jr., J. E. Peralta, 
 F. Ogliaro, M. J. Bearpark, J. J. Heyd, E. N. Brothers, K. N. Kudin, 
 V. N. Staroverov, T. A. Keith, R. Kobayashi, J. Normand, 
 K. Raghavachari, A. P. Rendell, J. C. Burant, S. S. Iyengar, 
 J. Tomasi, M. Cossi, J. M. Millam, M. Klene, C. Adamo, R. Cammi, 
 J. W. Ochterski, R. L. Martin, K. Morokuma, O. Farkas, 
 J. B. Foresman, and D. J. Fox, Gaussian, Inc., Wallingford CT, 2019.
 
 ******************************************
 Gaussian 16:  ES64L-G16RevC.01  3-Jul-2019
                30-Sep-2025 
 ******************************************
 %mem=12000MB
 %nprocshared=16
 Will use up to   16 processors via shared memory.
 %mem=32Gb
 %chk=guanidine.chk
 ----------------------------------------------------------------------
 #P MP2/aug-cc-pvtz Opt=tight density=MP2 Pop=(MK,Hirshfeld) iop(6/33=2
 ) iop(6/42=6) maxdisk=128GB
 ----------------------------------------------------------------------
 1/7=10,18=20,19=15,38=1/1,3;
 2/9=110,12=2,17=6,18=5,40=1/2;
 3/5=16,6=1,7=10,11=9,25=1,30=1,71=1/1,2,3;
 4//1;
 5/5=2,38=5/2;
 8/6=4,10=1/1;
 9/15=2,16=-3/6;
 10/5=1/2;
 6/7=2,8=2,9=2,10=2,15=8,20=1,22=2,33=2,42=6,79=1/1,2;
 7/12=2/1,2,3,16;
 1/7=10,18=20,19=15/3(2);
 2/9=110/2;
 99//99;
 2/9=110/2;
 3/5=16,6=1,7=10,11=9,25=1,30=1,71=1/1,2,3;
 4/5=5,16=3,69=1/1;
 5/5=2,38=5/2;
 8/6=4,10=1/1;
 9/15=2,16=-3/6;
 10/5=1/2;
 7/12=2/1,2,3,16;
 1/7=10,18=20,19=15/3(-8);
 2/9=110/2;
 6/7=2,8=2,9=2,10=2,15=8,20=1,22=2,33=2,42=6,79=1/1,2;
 99/9=10/99;
 Leave Link    1 at Tue Sep 30 16:58:49 2025, MaxMem=  4294967296 cpu:               0.9 elap:               0.1
 (Enter /software/sse/easybuild/prefix/software/Gaussian/16.C.01-avx2-nsc1/g16/l101.exe)
 ---------
 guanidine
 ---------
 Symbolic Z-matrix:
 Charge =  0 Multiplicity = 1
 C                    -0.01906   0.1224    0.00027 
 N                    -0.94181  -0.90385   0.07326 
 N                     1.2786   -0.33497  -0.07815 
 N                    -0.2627    1.35647   0.00596 
 H                     1.94617   0.39223   0.03425 
 H                     1.47925  -1.14265   0.46501 
 H                    -1.88677  -0.6314   -0.05967 
 H                    -0.70078  -1.72806  -0.42685 
 H                    -1.24212   1.552    -0.02185 
 
 ITRead=  0  0  0  0  0  0  0  0  0
 MicOpt= -1 -1 -1 -1 -1 -1 -1 -1 -1
 NAtoms=      9 NQM=        9 NQMF=       0 NMMI=      0 NMMIF=      0
                NMic=       0 NMicF=      0.
                    Isotopes and Nuclear Properties:
 (Nuclear quadrupole moments (NQMom) in fm**2, nuclear magnetic moments (NMagM)
  in nuclear magnetons)

  Atom         1           2           3           4           5           6           7           8           9
 IAtWgt=          12          14          14          14           1           1           1           1           1
 AtmWgt=  12.0000000  14.0030740  14.0030740  14.0030740   1.0078250   1.0078250   1.0078250   1.0078250   1.0078250
 NucSpn=           0           2           2           2           1           1           1           1           1
 AtZEff=  -0.0000000  -0.0000000  -0.0000000  -0.0000000  -0.0000000  -0.0000000  -0.0000000  -0.0000000  -0.0000000
 NQMom=    0.0000000   2.0440000   2.0440000   2.0440000   0.0000000   0.0000000   0.0000000   0.0000000   0.0000000
 NMagM=    0.0000000   0.4037610   0.4037610   0.4037610   2.7928460   2.7928460   2.7928460   2.7928460   2.7928460
 AtZNuc=   6.0000000   7.0000000   7.0000000   7.0000000   1.0000000   1.0000000   1.0000000   1.0000000   1.0000000
 Leave Link  101 at Tue Sep 30 16:58:50 2025, MaxMem=  4294967296 cpu:               5.2 elap:               0.3
 (Enter /software/sse/easybuild/prefix/software/Gaussian/16.C.01-avx2-nsc1/g16/l103.exe)

 GradGradGradGradGradGradGradGradGradGradGradGradGradGradGradGradGradGrad
 Berny optimization.
 Initialization pass.
                           ----------------------------
                           !    Initial Parameters    !
                           ! (Angstroms and Degrees)  !
 --------------------------                            --------------------------
 ! Name  Definition              Value          Derivative Info.                !
 --------------------------------------------------------------------------------
 ! R1    R(1,2)                  1.382          estimate D2E/DX2                !
 ! R2    R(1,3)                  1.3781         estimate D2E/DX2                !
 ! R3    R(1,4)                  1.2579         estimate D2E/DX2                !
 ! R4    R(2,7)                  0.9924         estimate D2E/DX2                !
 ! R5    R(2,8)                  0.9937         estimate D2E/DX2                !
 ! R6    R(3,5)                  0.9935         estimate D2E/DX2                !
 ! R7    R(3,6)                  0.9938         estimate D2E/DX2                !
 ! R8    R(4,9)                  0.9991         estimate D2E/DX2                !
 ! A1    A(2,1,3)              112.6596         estimate D2E/DX2                !
 ! A2    A(2,1,4)              126.7941         estimate D2E/DX2                !
 ! A3    A(3,1,4)              120.5455         estimate D2E/DX2                !
 ! A4    A(1,2,7)              115.1398         estimate D2E/DX2                !
 ! A5    A(1,2,8)              115.3004         estimate D2E/DX2                !
 ! A6    A(7,2,8)              113.0319         estimate D2E/DX2                !
 ! A7    A(1,3,5)              112.5402         estimate D2E/DX2                !
 ! A8    A(1,3,6)              115.3873         estimate D2E/DX2                !
 ! A9    A(5,3,6)              113.4136         estimate D2E/DX2                !
 ! A10   A(1,4,9)              112.441          estimate D2E/DX2                !
 ! D1    D(3,1,2,7)           -167.7648         estimate D2E/DX2                !
 ! D2    D(3,1,2,8)            -33.3482         estimate D2E/DX2                !
 ! D3    D(4,1,2,7)             12.5532         estimate D2E/DX2                !
 ! D4    D(4,1,2,8)            146.9697         estimate D2E/DX2                !
 ! D5    D(2,1,3,5)           -169.6635         estimate D2E/DX2                !
 ! D6    D(2,1,3,6)            -37.3505         estimate D2E/DX2                !
 ! D7    D(4,1,3,5)             10.0409         estimate D2E/DX2                !
 ! D8    D(4,1,3,6)            142.3539         estimate D2E/DX2                !
 ! D9    D(2,1,4,9)             -5.8087         estimate D2E/DX2                !
 ! D10   D(3,1,4,9)            174.532          estimate D2E/DX2                !
 --------------------------------------------------------------------------------
 Trust Radius=3.00D-01 FncErr=1.00D-07 GrdErr=1.00D-07 EigMax=2.50D+02 EigMin=1.00D-04
 Number of steps in this run=     38 maximum allowed number of steps=    100.
 GradGradGradGradGradGradGradGradGradGradGradGradGradGradGradGradGradGrad

 Leave Link  103 at Tue Sep 30 16:58:50 2025, MaxMem=  4294967296 cpu:               0.2 elap:               0.0
 (Enter /software/sse/easybuild/prefix/software/Gaussian/16.C.01-avx2-nsc1/g16/l202.exe)
                          Input orientation:                          
 ---------------------------------------------------------------------
 Center     Atomic      Atomic             Coordinates (Angstroms)
 Number     Number       Type             X           Y           Z
 ---------------------------------------------------------------------
      1          6           0       -0.019060    0.122400    0.000270
      2          7           0       -0.941810   -0.903850    0.073260
      3          7           0        1.278600   -0.334970   -0.078150
      4          7           0       -0.262700    1.356470    0.005960
      5          1           0        1.946170    0.392230    0.034250
      6          1           0        1.479250   -1.142650    0.465010
      7          1           0       -1.886770   -0.631400   -0.059670
      8          1           0       -0.700780   -1.728060   -0.426850
      9          1           0       -1.242120    1.552000   -0.021850
 ---------------------------------------------------------------------
                    Distance matrix (angstroms):
                    1          2          3          4          5
     1  C    0.000000
     2  N    1.382022   0.000000
     3  N    1.378136   2.297122   0.000000
     4  N    1.257904   2.361094   2.289902   0.000000
     5  H    1.983959   3.165719   0.993531   2.410325   0.000000
     6  H    2.015259   2.464148   0.993796   3.080701   1.661152
     7  H    2.014981   0.992395   3.179273   2.567789   3.968384
     8  H    2.017765   0.993744   2.445452   3.145404   3.422658
     9  H    1.881521   2.475971   3.149263   0.999134   3.393141
                    6          7          8          9
     6  H    0.000000
     7  H    3.444816   0.000000
     8  H    2.427066   1.656519   0.000000
     9  H    3.860573   2.276893   3.349010   0.000000
 Stoichiometry    CH5N3
 Framework group  C1[X(CH5N3)]
 Deg. of freedom    21
 Full point group                 C1      NOp   1
 Largest Abelian subgroup         C1      NOp   1
 Largest concise Abelian subgroup C1      NOp   1
                         Standard orientation:                         
 ---------------------------------------------------------------------
 Center     Atomic      Atomic             Coordinates (Angstroms)
 Number     Number       Type             X           Y           Z
 ---------------------------------------------------------------------
      1          6           0       -0.019063    0.122397    0.000270
      2          7           0       -0.941790   -0.903873    0.073260
      3          7           0        1.278607   -0.334944   -0.078150
      4          7           0       -0.262731    1.356462    0.005960
      5          1           0        1.946161    0.392271    0.034250
      6          1           0        1.479275   -1.142619    0.465010
      7          1           0       -1.886757   -0.631444   -0.059670
      8          1           0       -0.700742   -1.728078   -0.426850
      9          1           0       -1.242155    1.551970   -0.021850
 ---------------------------------------------------------------------
 Rotational constants (GHZ):          10.8316089          10.3955626           5.3650780
 Leave Link  202 at Tue Sep 30 16:58:50 2025, MaxMem=  4294967296 cpu:               0.1 elap:               0.0
 (Enter /software/sse/easybuild/prefix/software/Gaussian/16.C.01-avx2-nsc1/g16/l301.exe)
 Standard basis: Aug-CC-pVTZ (5D, 7F)
 Ernie: Thresh=  0.10000D-02 Tol=  0.10000D-05 Strict=F.
 Ernie:  12 primitive shells out of 175 were deleted.
 There are   345 symmetry adapted cartesian basis functions of A   symmetry.
 There are   299 symmetry adapted basis functions of A   symmetry.
   299 basis functions,   423 primitive gaussians,   345 cartesian basis functions
    16 alpha electrons       16 beta electrons
       nuclear repulsion energy       125.4731950393 Hartrees.
 IExCor=    0 DFT=F Ex=HF Corr=None ExCW=0 ScaHFX=  1.000000
 ScaDFX=  1.000000  1.000000  1.000000  1.000000 ScalE2=  1.000000  1.000000
 IRadAn=      5 IRanWt=     -1 IRanGd=            0 ICorTp=0 IEmpDi=  4
 NAtoms=    9 NActive=    9 NUniq=    9 SFac= 1.00D+00 NAtFMM=   60 NAOKFM=F Big=F
 Integral buffers will be    131072 words long.
 Raffenetti 1 integral format.
 Two-electron integral symmetry is turned on.
 Leave Link  301 at Tue Sep 30 16:58:51 2025, MaxMem=  4294967296 cpu:               0.8 elap:               0.1
 (Enter /software/sse/easybuild/prefix/software/Gaussian/16.C.01-avx2-nsc1/g16/l302.exe)
 NPDir=0 NMtPBC=     1 NCelOv=     1 NCel=       1 NClECP=     1 NCelD=      1
         NCelK=      1 NCelE2=     1 NClLst=     1 CellRange=     0.0.
 One-electron integrals computed using PRISM.
 One-electron integral symmetry used in STVInt
 NBasis=   299 RedAO= T EigKep=  3.32D-05  NBF=   299
 NBsUse=   299 1.00D-06 EigRej= -1.00D+00 NBFU=   299
 Leave Link  302 at Tue Sep 30 16:58:51 2025, MaxMem=  4294967296 cpu:               2.6 elap:               0.2
 (Enter /software/sse/easybuild/prefix/software/Gaussian/16.C.01-avx2-nsc1/g16/l303.exe)
 DipDrv:  MaxL=1.
 Leave Link  303 at Tue Sep 30 16:58:52 2025, MaxMem=  4294967296 cpu:               0.5 elap:               0.1
 (Enter /software/sse/easybuild/prefix/software/Gaussian/16.C.01-avx2-nsc1/g16/l401.exe)
 ExpMin= 2.53D-02 ExpMax= 1.14D+04 ExpMxC= 3.89D+02 IAcc=3 IRadAn=         5 AccDes= 0.00D+00
 Harris functional with IExCor=  205 and IRadAn=       5 diagonalized for initial guess.
 HarFok:  IExCor=  205 AccDes= 0.00D+00 IRadAn=         5 IDoV= 1 UseB2=F ITyADJ=14
 ICtDFT=  3500011 ScaDFX=  1.000000  1.000000  1.000000  1.000000
 FoFCou: FMM=F IPFlag=           0 FMFlag=      100000 FMFlg1=           0
         NFxFlg=           0 DoJE=T BraDBF=F KetDBF=T FulRan=T
         wScrn=  0.000000 ICntrl=       500 IOpCl=  0 I1Cent=   200000004 NGrid=           0
         NMat0=    1 NMatS0=      1 NMatT0=    0 NMatD0=    1 NMtDS0=    0 NMtDT0=    0
 Petite list used in FoFCou.
 Harris En= -204.501569664107    
 JPrj=0 DoOrth=F DoCkMO=F.
 Leave Link  401 at Tue Sep 30 16:58:53 2025, MaxMem=  4294967296 cpu:               5.6 elap:               0.4
 (Enter /software/sse/easybuild/prefix/software/Gaussian/16.C.01-avx2-nsc1/g16/l502.exe)
 Keep R1 ints in memory in canonical form, NReq=1026496026.
 FoFCou: FMM=F IPFlag=           0 FMFlag=           0 FMFlg1=           0
         NFxFlg=           0 DoJE=F BraDBF=F KetDBF=F FulRan=T
         wScrn=  0.000000 ICntrl=       600 IOpCl=  0 I1Cent=           0 NGrid=           0
         NMat0=    1 NMatS0=  44850 NMatT0=    0 NMatD0=    1 NMtDS0=    0 NMtDT0=    0
 Symmetry not used in FoFCou.
 Two-electron integral symmetry not used.
 Closed shell SCF:
 Using DIIS extrapolation, IDIIS=  1040.
 NGot=  4294967296 LenX=  3288936947 LenY=  3288817481
 Requested convergence on RMS density matrix=1.00D-08 within 128 cycles.
 Requested convergence on MAX density matrix=1.00D-06.
 Requested convergence on             energy=1.00D-06.
 No special actions if energy rises.

 Cycle   1  Pass 1  IDiag  1:
 E= -203.970215456799    
 DIIS: error= 2.35D-02 at cycle   1 NSaved=   1.
 NSaved= 1 IEnMin= 1 EnMin= -203.970215456799     IErMin= 1 ErrMin= 2.35D-02
 ErrMax= 2.35D-02  0.00D+00 EMaxC= 1.00D-01 BMatC= 5.34D-01 BMatP= 5.34D-01
 IDIUse=3 WtCom= 7.65D-01 WtEn= 2.35D-01
 Coeff-Com:  0.100D+01
 Coeff-En:   0.100D+01
 Coeff:      0.100D+01
 Gap=     0.544 Goal=   None    Shift=    0.000
 GapD=    0.544 DampG=2.000 DampE=0.500 DampFc=1.0000 IDamp=-1.
 RMSDP=1.54D-03 MaxDP=9.28D-02              OVMax= 1.66D-01

 Cycle   2  Pass 1  IDiag  1:
 E= -204.161061584987     Delta-E=       -0.190846128188 Rises=F Damp=F
 DIIS: error= 1.03D-02 at cycle   2 NSaved=   2.
 NSaved= 2 IEnMin= 2 EnMin= -204.161061584987     IErMin= 2 ErrMin= 1.03D-02
 ErrMax= 1.03D-02  0.00D+00 EMaxC= 1.00D-01 BMatC= 7.31D-02 BMatP= 5.34D-01
 IDIUse=3 WtCom= 8.97D-01 WtEn= 1.03D-01
 Coeff-Com:  0.210D+00 0.790D+00
 Coeff-En:   0.000D+00 0.100D+01
 Coeff:      0.189D+00 0.811D+00
 Gap=     0.421 Goal=   None    Shift=    0.000
 RMSDP=6.94D-04 MaxDP=3.42D-02 DE=-1.91D-01 OVMax= 6.87D-02

 Cycle   3  Pass 1  IDiag  1:
 E= -204.212291844485     Delta-E=       -0.051230259498 Rises=F Damp=F
 DIIS: error= 4.29D-03 at cycle   3 NSaved=   3.
 NSaved= 3 IEnMin= 3 EnMin= -204.212291844485     IErMin= 3 ErrMin= 4.29D-03
 ErrMax= 4.29D-03  0.00D+00 EMaxC= 1.00D-01 BMatC= 5.36D-03 BMatP= 7.31D-02
 IDIUse=3 WtCom= 9.57D-01 WtEn= 4.29D-02
 Coeff-Com: -0.267D-01 0.174D+00 0.853D+00
 Coeff-En:   0.000D+00 0.000D+00 0.100D+01
 Coeff:     -0.255D-01 0.167D+00 0.859D+00
 Gap=     0.388 Goal=   None    Shift=    0.000
 RMSDP=1.44D-04 MaxDP=7.24D-03 DE=-5.12D-02 OVMax= 2.38D-02

 Cycle   4  Pass 1  IDiag  1:
 E= -204.216324581141     Delta-E=       -0.004032736656 Rises=F Damp=F
 DIIS: error= 9.75D-04 at cycle   4 NSaved=   4.
 NSaved= 4 IEnMin= 4 EnMin= -204.216324581141     IErMin= 4 ErrMin= 9.75D-04
 ErrMax= 9.75D-04  0.00D+00 EMaxC= 1.00D-01 BMatC= 1.83D-04 BMatP= 5.36D-03
 IDIUse=3 WtCom= 9.90D-01 WtEn= 9.75D-03
 Coeff-Com: -0.104D-01 0.395D-01 0.248D+00 0.723D+00
 Coeff-En:   0.000D+00 0.000D+00 0.000D+00 0.100D+01
 Coeff:     -0.103D-01 0.391D-01 0.246D+00 0.726D+00
 Gap=     0.389 Goal=   None    Shift=    0.000
 RMSDP=3.17D-05 MaxDP=1.36D-03 DE=-4.03D-03 OVMax= 3.97D-03

 Cycle   5  Pass 1  IDiag  1:
 E= -204.216508456630     Delta-E=       -0.000183875489 Rises=F Damp=F
 DIIS: error= 4.15D-04 at cycle   5 NSaved=   5.
 NSaved= 5 IEnMin= 5 EnMin= -204.216508456630     IErMin= 5 ErrMin= 4.15D-04
 ErrMax= 4.15D-04  0.00D+00 EMaxC= 1.00D-01 BMatC= 1.79D-05 BMatP= 1.83D-04
 IDIUse=3 WtCom= 9.96D-01 WtEn= 4.15D-03
 Coeff-Com:  0.432D-02-0.290D-01-0.148D+00-0.201D-01 0.119D+01
 Coeff-En:   0.000D+00 0.000D+00 0.000D+00 0.000D+00 0.100D+01
 Coeff:      0.430D-02-0.289D-01-0.148D+00-0.200D-01 0.119D+01
 Gap=     0.389 Goal=   None    Shift=    0.000
 RMSDP=2.24D-05 MaxDP=1.12D-03 DE=-1.84D-04 OVMax= 4.06D-03

 Cycle   6  Pass 1  IDiag  1:
 E= -204.216554170619     Delta-E=       -0.000045713989 Rises=F Damp=F
 DIIS: error= 7.07D-05 at cycle   6 NSaved=   6.
 NSaved= 6 IEnMin= 6 EnMin= -204.216554170619     IErMin= 6 ErrMin= 7.07D-05
 ErrMax= 7.07D-05  0.00D+00 EMaxC= 1.00D-01 BMatC= 1.24D-06 BMatP= 1.79D-05
 IDIUse=1 WtCom= 1.00D+00 WtEn= 0.00D+00
 Coeff-Com: -0.365D-03 0.361D-02 0.223D-01-0.646D-01-0.235D+00 0.127D+01
 Coeff:     -0.365D-03 0.361D-02 0.223D-01-0.646D-01-0.235D+00 0.127D+01
 Gap=     0.389 Goal=   None    Shift=    0.000
 RMSDP=6.87D-06 MaxDP=2.49D-04 DE=-4.57D-05 OVMax= 1.14D-03

 Cycle   7  Pass 1  IDiag  1:
 E= -204.216557709722     Delta-E=       -0.000003539103 Rises=F Damp=F
 DIIS: error= 2.69D-05 at cycle   7 NSaved=   7.
 NSaved= 7 IEnMin= 7 EnMin= -204.216557709722     IErMin= 7 ErrMin= 2.69D-05
 ErrMax= 2.69D-05  0.00D+00 EMaxC= 1.00D-01 BMatC= 9.97D-08 BMatP= 1.24D-06
 IDIUse=1 WtCom= 1.00D+00 WtEn= 0.00D+00
 Coeff-Com: -0.277D-03 0.182D-02 0.943D-02-0.108D-02-0.509D-01-0.100D+00
 Coeff-Com:  0.114D+01
 Coeff:     -0.277D-03 0.182D-02 0.943D-02-0.108D-02-0.509D-01-0.100D+00
 Coeff:      0.114D+01
 Gap=     0.389 Goal=   None    Shift=    0.000
 RMSDP=1.88D-06 MaxDP=7.73D-05 DE=-3.54D-06 OVMax= 3.61D-04

 Cycle   8  Pass 1  IDiag  1:
 E= -204.216557988391     Delta-E=       -0.000000278670 Rises=F Damp=F
 DIIS: error= 8.54D-06 at cycle   8 NSaved=   8.
 NSaved= 8 IEnMin= 8 EnMin= -204.216557988391     IErMin= 8 ErrMin= 8.54D-06
 ErrMax= 8.54D-06  0.00D+00 EMaxC= 1.00D-01 BMatC= 1.89D-08 BMatP= 9.97D-08
 IDIUse=1 WtCom= 1.00D+00 WtEn= 0.00D+00
 Coeff-Com: -0.669D-05-0.142D-03-0.120D-02 0.639D-02 0.271D-01-0.202D+00
 Coeff-Com:  0.189D+00 0.981D+00
 Coeff:     -0.669D-05-0.142D-03-0.120D-02 0.639D-02 0.271D-01-0.202D+00
 Coeff:      0.189D+00 0.981D+00
 Gap=     0.389 Goal=   None    Shift=    0.000
 RMSDP=6.59D-07 MaxDP=2.75D-05 DE=-2.79D-07 OVMax= 1.32D-04

 Cycle   9  Pass 1  IDiag  1:
 E= -204.216558031046     Delta-E=       -0.000000042654 Rises=F Damp=F
 DIIS: error= 2.40D-06 at cycle   9 NSaved=   9.
 NSaved= 9 IEnMin= 9 EnMin= -204.216558031046     IErMin= 9 ErrMin= 2.40D-06
 ErrMax= 2.40D-06  0.00D+00 EMaxC= 1.00D-01 BMatC= 1.91D-09 BMatP= 1.89D-08
 IDIUse=1 WtCom= 1.00D+00 WtEn= 0.00D+00
 Coeff-Com:  0.406D-04-0.280D-03-0.130D-02-0.112D-02 0.871D-02 0.202D-01
 Coeff-Com: -0.157D+00-0.431D-01 0.117D+01
 Coeff:      0.406D-04-0.280D-03-0.130D-02-0.112D-02 0.871D-02 0.202D-01
 Coeff:     -0.157D+00-0.431D-01 0.117D+01
 Gap=     0.389 Goal=   None    Shift=    0.000
 RMSDP=2.16D-07 MaxDP=1.13D-05 DE=-4.27D-08 OVMax= 4.53D-05

 Cycle  10  Pass 1  IDiag  1:
 E= -204.216558036161     Delta-E=       -0.000000005116 Rises=F Damp=F
 DIIS: error= 8.02D-07 at cycle  10 NSaved=  10.
 NSaved=10 IEnMin=10 EnMin= -204.216558036161     IErMin=10 ErrMin= 8.02D-07
 ErrMax= 8.02D-07  0.00D+00 EMaxC= 1.00D-01 BMatC= 1.45D-10 BMatP= 1.91D-09
 IDIUse=1 WtCom= 1.00D+00 WtEn= 0.00D+00
 Coeff-Com:  0.270D-05-0.247D-05 0.926D-04-0.730D-03-0.208D-02 0.192D-01
 Coeff-Com: -0.147D-01-0.989D-01-0.590D-01 0.116D+01
 Coeff:      0.270D-05-0.247D-05 0.926D-04-0.730D-03-0.208D-02 0.192D-01
 Coeff:     -0.147D-01-0.989D-01-0.590D-01 0.116D+01
 Gap=     0.389 Goal=   None    Shift=    0.000
 RMSDP=7.33D-08 MaxDP=2.97D-06 DE=-5.12D-09 OVMax= 1.10D-05

 Cycle  11  Pass 1  IDiag  1:
 E= -204.216558036540     Delta-E=       -0.000000000379 Rises=F Damp=F
 DIIS: error= 1.55D-07 at cycle  11 NSaved=  11.
 NSaved=11 IEnMin=11 EnMin= -204.216558036540     IErMin=11 ErrMin= 1.55D-07
 ErrMax= 1.55D-07  0.00D+00 EMaxC= 1.00D-01 BMatC= 5.15D-12 BMatP= 1.45D-10
 IDIUse=1 WtCom= 1.00D+00 WtEn= 0.00D+00
 Coeff-Com: -0.176D-05 0.125D-04 0.627D-04 0.433D-04-0.463D-03-0.107D-02
 Coeff-Com:  0.788D-02 0.335D-02-0.622D-01 0.112D-01 0.104D+01
 Coeff:     -0.176D-05 0.125D-04 0.627D-04 0.433D-04-0.463D-03-0.107D-02
 Coeff:      0.788D-02 0.335D-02-0.622D-01 0.112D-01 0.104D+01
 Gap=     0.389 Goal=   None    Shift=    0.000
 RMSDP=1.36D-08 MaxDP=5.15D-07 DE=-3.79D-10 OVMax= 1.80D-06

 Cycle  12  Pass 1  IDiag  1:
 E= -204.216558036555     Delta-E=       -0.000000000015 Rises=F Damp=F
 DIIS: error= 4.80D-08 at cycle  12 NSaved=  12.
 NSaved=12 IEnMin=12 EnMin= -204.216558036555     IErMin=12 ErrMin= 4.80D-08
 ErrMax= 4.80D-08  0.00D+00 EMaxC= 1.00D-01 BMatC= 7.55D-13 BMatP= 5.15D-12
 IDIUse=1 WtCom= 1.00D+00 WtEn= 0.00D+00
 Coeff-Com: -0.350D-06 0.131D-05-0.302D-05 0.798D-04 0.149D-03-0.191D-02
 Coeff-Com:  0.233D-02 0.930D-02-0.669D-02-0.966D-01 0.179D+00 0.914D+00
 Coeff:     -0.350D-06 0.131D-05-0.302D-05 0.798D-04 0.149D-03-0.191D-02
 Coeff:      0.233D-02 0.930D-02-0.669D-02-0.966D-01 0.179D+00 0.914D+00
 Gap=     0.389 Goal=   None    Shift=    0.000
 RMSDP=4.00D-09 MaxDP=1.53D-07 DE=-1.47D-11 OVMax= 4.81D-07

 SCF Done:  E(RHF) =  -204.216558037     A.U. after   12 cycles
            NFock= 12  Conv=0.40D-08     -V/T= 2.0005
 KE= 2.041225660743D+02 PE=-7.296557624573D+02 EE= 1.958434433072D+02
 Leave Link  502 at Tue Sep 30 16:59:12 2025, MaxMem=  4294967296 cpu:              83.3 elap:              18.5
 (Enter /software/sse/easybuild/prefix/software/Gaussian/16.C.01-avx2-nsc1/g16/l801.exe)
 ExpMin= 2.53D-02 ExpMax= 1.14D+04 ExpMxC= 3.89D+02 IAcc=3 IRadAn=         5 AccDes= 0.00D+00
 HarFok:  IExCor=  205 AccDes= 0.00D+00 IRadAn=         5 IDoV=-2 UseB2=F ITyADJ=14
 ICtDFT= 12500011 ScaDFX=  1.000000  1.000000  1.000000  1.000000
 Largest valence mixing into a core orbital is  1.98D-04
 Largest core mixing into a valence orbital is  3.39D-05
 Range of M.O.s used for correlation:     5   299
 NBasis=   299 NAE=    16 NBE=    16 NFC=     4 NFV=     0
 NROrb=    295 NOA=    12 NOB=    12 NVA=   283 NVB=   283

 **** Warning!!: The largest alpha MO coefficient is  0.42301215D+02

 Leave Link  801 at Tue Sep 30 16:59:12 2025, MaxMem=  4294967296 cpu:               0.8 elap:               0.1
 (Enter /software/sse/easybuild/prefix/software/Gaussian/16.C.01-avx2-nsc1/g16/l906.exe)
 Frozen-core derivative calculation, NFC=   4 NFV=   0.
 FulOut=F Deriv=T AODrv=T NAtomX=     9
   MMem=          11  MDisk=          12 MDiskD=          12
  W3Min=     1650480 MinDsk=     2971805 NBas6D=         345
 NBas2D=       60468    NTT=       59685    LW2=     3500000
    MDV=  4293965545 MDiskM=       62202 NBas2p=       60426
 Disk-based method using ON**2 memory for 12 occupieds at a time.
 Estimated scratch disk usage=   938284482 words.
 IMap=   1   2   3   4   5   6   7   8   9  10  11  12  13  14  15  16
 Actual    scratch disk usage=   858977218 words.
 JobTyp=1 Pass  1:  I=   5 to  16 NPSUse= 16 ParTrn=T ParDer=T DoDerP=T.
 (rs|ai) integrals will be sorted in core.
 Spin components of T(2) and E(2):
     alpha-alpha T2 =       0.2977397414D-01 E2=     -0.9904284117D-01
     alpha-beta  T2 =       0.1667942015D+00 E2=     -0.6020612305D+00
     beta-beta   T2 =       0.2977397414D-01 E2=     -0.9904284117D-01
 The integrals were generated   1 times.
 ANorm=    0.1107403337D+01
 E2 =    -0.8001469129D+00 EUMP2 =    -0.20501670494944D+03
 Leave Link  906 at Tue Sep 30 17:00:02 2025, MaxMem=  4294967296 cpu:             801.9 elap:              50.4
 (Enter /software/sse/easybuild/prefix/software/Gaussian/16.C.01-avx2-nsc1/g16/l1002.exe)
 Minotr:  Closed shell wavefunction.
          Computing MP2/KS-MP2 derivatives.
          Using Z-Vector for PSCF gradient.
          Skipping F1 and S1 gradient terms here.
          IDoAtm=111111111
          Frozen-core window.
          Direct CPHF calculation.
          Differentiating once with respect to electric field.
                with respect to dipole field.
          Differentiating once with respect to nuclear coordinates.
          Requested convergence is 1.0D-10 RMS, and 1.0D-09 maximum.
          NewPWx=F KeepS1=T KeepF1=T KeepIn=T MapXYZ=F SortEE=F KeepMc=T.
 Keep R1 ints in memory in canonical form, NReq=1026497879.
 FoFCou: FMM=F IPFlag=           0 FMFlag=           0 FMFlg1=           0
         NFxFlg=           0 DoJE=F BraDBF=F KetDBF=F FulRan=T
         wScrn=  0.000000 ICntrl=       600 IOpCl=  0 I1Cent=           0 NGrid=           0
         NMat0=    1 NMatS0=  44850 NMatT0=    0 NMatD0=    1 NMtDS0=    0 NMtDT0=    0
 Symmetry not used in FoFCou.
 Two-electron integral symmetry not used.
          MDV=    4294967296 using IRadAn=       5.
          Solving linear equations separately, MaxMat=       0.
          There are     1 degrees of freedom in the 1st order CPHF.  IDoFFX=0 NUNeed=     1.
 LinEq1:  Iter=  0 NonCon=     1 RMS=3.01D-03 Max=7.18D-02 NDo=     1
 AX will form     1 AO Fock derivatives at one time.
 LinEq1:  Iter=  1 NonCon=     1 RMS=7.68D-04 Max=7.71D-03 NDo=     1
 LinEq1:  Iter=  2 NonCon=     1 RMS=2.78D-04 Max=3.79D-03 NDo=     1
 LinEq1:  Iter=  3 NonCon=     1 RMS=7.99D-05 Max=1.68D-03 NDo=     1
 LinEq1:  Iter=  4 NonCon=     1 RMS=3.08D-05 Max=4.46D-04 NDo=     1
 LinEq1:  Iter=  5 NonCon=     1 RMS=6.00D-06 Max=8.91D-05 NDo=     1
 LinEq1:  Iter=  6 NonCon=     1 RMS=1.67D-06 Max=2.09D-05 NDo=     1
 LinEq1:  Iter=  7 NonCon=     1 RMS=5.42D-07 Max=6.21D-06 NDo=     1
 LinEq1:  Iter=  8 NonCon=     1 RMS=1.62D-07 Max=2.00D-06 NDo=     1
 LinEq1:  Iter=  9 NonCon=     1 RMS=4.16D-08 Max=4.33D-07 NDo=     1
 LinEq1:  Iter= 10 NonCon=     1 RMS=1.07D-08 Max=9.43D-08 NDo=     1
 LinEq1:  Iter= 11 NonCon=     1 RMS=3.98D-09 Max=3.46D-08 NDo=     1
 LinEq1:  Iter= 12 NonCon=     1 RMS=8.67D-10 Max=1.15D-08 NDo=     1
 LinEq1:  Iter= 13 NonCon=     1 RMS=1.63D-10 Max=1.43D-09 NDo=     1
 LinEq1:  Iter= 14 NonCon=     0 RMS=3.69D-11 Max=4.12D-10 NDo=     1
 Linear equations converged to 1.000D-10 1.000D-09 after    14 iterations.
 End of Minotr F.D. properties file   721 does not exist.
 End of Minotr F.D. properties file   722 does not exist.
 End of Minotr F.D. properties file   788 does not exist.
 Leave Link 1002 at Tue Sep 30 17:00:25 2025, MaxMem=  4294967296 cpu:              85.6 elap:              23.0
 (Enter /software/sse/easybuild/prefix/software/Gaussian/16.C.01-avx2-nsc1/g16/l601.exe)
 Copying SCF densities to generalized density rwf, IOpCl= 0 IROHF=0.
 SCF density gives NOpUse=  1 NOpAll=  1.

 **********************************************************************

            Population analysis using the MP2 Density.

 **********************************************************************

 Orbital symmetries:
 BldTbl:  Degeneracy threshold= 1.00D-02
       Occupied  (A) (A) (A) (A) (A) (A) (A) (A) (A) (A) (A) (A)
                 (A) (A) (A) (A)
       Virtual   (A) (A) (A) (A) (A) (A) (A) (A) (A) (A) (A) (A)
                 (A) (A) (A) (A) (A) (A) (A) (A) (A) (A) (A) (A)
                 (A) (A) (A) (A) (A) (A) (A) (A) (A) (A) (A) (A)
                 (A) (A) (A) (A) (A) (A) (A) (A) (A) (A) (A) (A)
                 (A) (A) (A) (A) (A) (A) (A) (A) (A) (A) (A) (A)
                 (A) (A) (A) (A) (A) (A) (A) (A) (A) (A) (A) (A)
                 (A) (A) (A) (A) (A) (A) (A) (A) (A) (A) (A) (A)
                 (A) (A) (A) (A) (A) (A) (A) (A) (A) (A) (A) (A)
                 (A) (A) (A) (A) (A) (A) (A) (A) (A) (A) (A) (A)
                 (A) (A) (A) (A) (A) (A) (A) (A) (A) (A) (A) (A)
                 (A) (A) (A) (A) (A) (A) (A) (A) (A) (A) (A) (A)
                 (A) (A) (A) (A) (A) (A) (A) (A) (A) (A) (A) (A)
                 (A) (A) (A) (A) (A) (A) (A) (A) (A) (A) (A) (A)
                 (A) (A) (A) (A) (A) (A) (A) (A) (A) (A) (A) (A)
                 (A) (A) (A) (A) (A) (A) (A) (A) (A) (A) (A) (A)
                 (A) (A) (A) (A) (A) (A) (A) (A) (A) (A) (A) (A)
                 (A) (A) (A) (A) (A) (A) (A) (A) (A) (A) (A) (A)
                 (A) (A) (A) (A) (A) (A) (A) (A) (A) (A) (A) (A)
                 (A) (A) (A) (A) (A) (A) (A) (A) (A) (A) (A) (A)
                 (A) (A) (A) (A) (A) (A) (A) (A) (A) (A) (A) (A)
                 (A) (A) (A) (A) (A) (A) (A) (A) (A) (A) (A) (A)
                 (A) (A) (A) (A) (A) (A) (A) (A) (A) (A) (A) (A)
                 (A) (A) (A) (A) (A) (A) (A) (A) (A) (A) (A) (A)
                 (A) (A) (A) (A) (A) (A) (A)
 The electronic state is 1-A.
 Alpha  occ. eigenvalues --  -15.57549 -15.56497 -15.50446 -11.33781  -1.30481
 Alpha  occ. eigenvalues --   -1.17528  -1.14132  -0.81707  -0.73817  -0.71658
 Alpha  occ. eigenvalues --   -0.63606  -0.61771  -0.56998  -0.43590  -0.42197
 Alpha  occ. eigenvalues --   -0.36558
 Alpha virt. eigenvalues --    0.02345   0.03491   0.04342   0.05655   0.06183
 Alpha virt. eigenvalues --    0.08915   0.11227   0.12263   0.12572   0.13152
 Alpha virt. eigenvalues --    0.13732   0.14326   0.15627   0.17105   0.17378
 Alpha virt. eigenvalues --    0.17625   0.18707   0.19061   0.19450   0.23082
 Alpha virt. eigenvalues --    0.24839   0.25972   0.27944   0.28652   0.29527
 Alpha virt. eigenvalues --    0.30648   0.31630   0.33321   0.33569   0.34544
 Alpha virt. eigenvalues --    0.36138   0.36473   0.37155   0.38039   0.39916
 Alpha virt. eigenvalues --    0.40332   0.41213   0.42148   0.43047   0.44052
 Alpha virt. eigenvalues --    0.44791   0.45349   0.45804   0.47910   0.48876
 Alpha virt. eigenvalues --    0.52370   0.54131   0.55012   0.56385   0.57704
 Alpha virt. eigenvalues --    0.58928   0.59531   0.61815   0.62283   0.65089
 Alpha virt. eigenvalues --    0.66101   0.68123   0.68873   0.69706   0.70564
 Alpha virt. eigenvalues --    0.72072   0.73612   0.74523   0.76956   0.78712
 Alpha virt. eigenvalues --    0.81196   0.85516   0.85973   0.86432   0.89163
 Alpha virt. eigenvalues --    0.89471   0.89853   0.92074   0.93365   0.94776
 Alpha virt. eigenvalues --    0.96848   0.97364   0.99112   0.99893   0.99976
 Alpha virt. eigenvalues --    1.01507   1.02502   1.03037   1.05676   1.06413
 Alpha virt. eigenvalues --    1.07787   1.09497   1.10468   1.11844   1.12328
 Alpha virt. eigenvalues --    1.13247   1.15431   1.16660   1.18747   1.19495
 Alpha virt. eigenvalues --    1.21715   1.22241   1.22510   1.24275   1.25224
 Alpha virt. eigenvalues --    1.26741   1.28001   1.28595   1.29602   1.34901
 Alpha virt. eigenvalues --    1.36082   1.38410   1.39865   1.41471   1.42218
 Alpha virt. eigenvalues --    1.44455   1.46733   1.47621   1.50003   1.51094
 Alpha virt. eigenvalues --    1.53930   1.54365   1.57335   1.58540   1.62477
 Alpha virt. eigenvalues --    1.65071   1.65950   1.68898   1.72145   1.75083
 Alpha virt. eigenvalues --    1.78328   1.80532   1.87173   1.88995   1.90496
 Alpha virt. eigenvalues --    1.92596   1.94840   1.95823   1.98403   1.98847
 Alpha virt. eigenvalues --    2.01585   2.03398   2.05854   2.09954   2.11475
 Alpha virt. eigenvalues --    2.12974   2.17029   2.18022   2.20079   2.22079
 Alpha virt. eigenvalues --    2.25151   2.26148   2.29129   2.30385   2.31716
 Alpha virt. eigenvalues --    2.35198   2.35405   2.36057   2.39784   2.44507
 Alpha virt. eigenvalues --    2.45203   2.48441   2.50690   2.52147   2.53972
 Alpha virt. eigenvalues --    2.56085   2.60114   2.62081   2.63119   2.65299
 Alpha virt. eigenvalues --    2.68402   2.69138   2.77952   2.82917   2.88398
 Alpha virt. eigenvalues --    3.01155   3.09834   3.20218   3.20228   3.28253
 Alpha virt. eigenvalues --    3.43359   3.49911   3.60859   3.62991   3.68756
 Alpha virt. eigenvalues --    3.73150   3.75365   3.76643   3.84320   3.84939
 Alpha virt. eigenvalues --    3.86994   3.90208   3.91313   3.95425   3.97205
 Alpha virt. eigenvalues --    3.98897   4.06428   4.12116   4.16291   4.18262
 Alpha virt. eigenvalues --    4.19091   4.21763   4.22506   4.27706   4.29637
 Alpha virt. eigenvalues --    4.32749   4.36533   4.38332   4.40064   4.41181
 Alpha virt. eigenvalues --    4.42069   4.44556   4.48077   4.49876   4.53936
 Alpha virt. eigenvalues --    4.54963   4.55903   4.57977   4.63416   4.67651
 Alpha virt. eigenvalues --    4.70727   4.72915   4.75215   4.80074   4.88949
 Alpha virt. eigenvalues --    4.90512   4.90634   4.92826   4.94327   4.96598
 Alpha virt. eigenvalues --    5.00996   5.04618   5.08380   5.10174   5.12317
 Alpha virt. eigenvalues --    5.15515   5.20882   5.23922   5.25502   5.27305
 Alpha virt. eigenvalues --    5.30349   5.33975   5.36797   5.37448   5.43345
 Alpha virt. eigenvalues --    5.45248   5.48589   5.55852   5.62435   5.64648
 Alpha virt. eigenvalues --    5.67513   5.75277   5.77532   5.78430   5.84112
 Alpha virt. eigenvalues --    5.86462   5.92996   5.97431   6.02666   6.06126
 Alpha virt. eigenvalues --    6.07605   6.09417   6.13165   6.15846   6.17411
 Alpha virt. eigenvalues --    6.25378   6.28716   6.30588   6.35626   6.37173
 Alpha virt. eigenvalues --    6.55648   6.69116   6.74468   6.83274   6.87375
 Alpha virt. eigenvalues --    6.94110   7.07935   7.08688   7.24733   7.34728
 Alpha virt. eigenvalues --    7.46206   7.66668   7.78834   7.83845  16.72615
 Alpha virt. eigenvalues --   17.50683  17.74623  19.49081
          Condensed to atoms (all electrons):
               1          2          3          4          5          6
     1  C    5.662171  -0.021239  -0.005528   0.166156  -0.070767   0.003360
     2  N   -0.021239   7.088955  -0.084483  -0.088767  -0.008459  -0.029157
     3  N   -0.005528  -0.084483   7.115942  -0.228010   0.229411   0.242356
     4  N    0.166156  -0.088767  -0.228010   7.639141  -0.009286  -0.012954
     5  H   -0.070767  -0.008459   0.229411  -0.009286   0.748630  -0.079963
     6  H    0.003360  -0.029157   0.242356  -0.012954  -0.079963   0.749283
     7  H   -0.064475   0.275159  -0.007427  -0.046446   0.009381  -0.003344
     8  H    0.013205   0.219679  -0.030438   0.006277  -0.003559   0.015659
     9  H   -0.051064  -0.064526   0.015090   0.142179  -0.003029   0.005854
               7          8          9
     1  C   -0.064475   0.013205  -0.051064
     2  N    0.275159   0.219679  -0.064526
     3  N   -0.007427  -0.030438   0.015090
     4  N   -0.046446   0.006277   0.142179
     5  H    0.009381  -0.003559  -0.003029
     6  H   -0.003344   0.015659   0.005854
     7  H    0.780023  -0.083773  -0.007506
     8  H   -0.083773   0.725466  -0.001158
     9  H   -0.007506  -0.001158   0.813572
 Mulliken charges:
               1
     1  C    0.368181
     2  N   -0.287162
     3  N   -0.246914
     4  N   -0.568290
     5  H    0.187641
     6  H    0.108906
     7  H    0.148408
     8  H    0.138643
     9  H    0.150588
 Sum of Mulliken charges =  -0.00000
 Mulliken charges with hydrogens summed into heavy atoms:
               1
     1  C    0.368181
     2  N   -0.000111
     3  N    0.049632
     4  N   -0.417703
 DipInt: DoE/N= T F RetVal/Mat= T F Init=T NMatP=  1 IDeriv=0 Min/MaxMlt=  0  4
 Entering OneElI...
 OneElI was handed  4294661810 working-precision words.
 Multipole integrals L=0 to 4 MinM= 0 MaxM= 0.
 Requested accuracy = 0.1000D-12
 ShPair: Thresh= 1.00D-13 NBox=     0 BxSize= 0.00D+00 RnKept= 7.50D+00
         NSMCal=                 5151 NSMKep=                5148
 PrmmSu-InSpLW:  IPartL=    0 NPrtUS=    1 NPrtUL=    1 DoSpLW=F IThBeg=    0 IThEnd=    0 NThAct=    1.
 PrSmSu:  IncTry=   512 NBBP=           5148 NTPThr=   100 NPartT=    1 Incr=          51 LDynOK=F GPUOK=F.
 PrsmSu:  NPrtUS=   1 ThrOK=F IAlg=2 LenDen=           0 ISkipM=0 DoSpLW=F IThBeg=    0 IThEnd=    0.
 Prism:   IPart=     0 DynPar=F LinDyn=F Incr=          51.
 PRISM was handed  4294301712 working-precision words and  5148 shell-pairs
 IPart=  0 NShTot=        5148 NBatch=          74 AvBLen=        69.6
 PrsmSu-ThDecC:  IPartSL=    0    0 NPrtUSL=    1    1 IThBeg=    0 IThEnd=    0 CPU=   -1 GPU=   -1 NThAct=    1.
 PrSmSu:  NxtVal=             52.
 Electronic moments (au):
        -32.00000000         -0.29858375         -1.05889883         -0.00351835
       -119.66622164       -115.33325574        -22.30229034         -0.80416934
          2.04058270          0.35692282        -72.45065885        -83.32087531
         -0.08530353         73.64776370         73.21293685          0.83316835
         -1.34094598          2.38889834         -0.60245082         -0.29854850
      -1064.22597382       -994.61093649        -88.02574563         -9.11630989
          9.88487138         15.04869395         -5.59275711          4.84859359
          0.90898219       -334.14769950       -100.10275032        -99.72509074
          6.10228282         -4.46992260         -0.25608567
 Electronic spatial extent (au):  <R**2>=            257.3018
 DipInt: DoE/N= F T RetVal/Mat= T F Init=T NMatP=  1 IDeriv=0 Min/MaxMlt=  0  4
 Nuclear    moments (au):
         32.00000000         -0.00000000         -0.00000000          0.00000000
        106.08791167         95.44409732          1.72916835          0.00000000
         -0.00019162          0.00000088         69.43202994         60.35947424
          0.14852189        -76.75253016        -70.89588184          1.72050630
          1.39273177         -4.12267854         -2.05379418         -4.38466260
        748.28423864        574.71638645          1.02570274         16.14725623
          9.87813878        -34.42966877         15.18140733          2.51056970
          0.23301761        220.45670992          8.71927325         11.03227124
         -9.88902716         18.09071633         -1.62027147
 Total      moments (au):
          0.00000000         -0.29858375         -1.05889883         -0.00351835
        -13.57830997        -19.88915843        -20.57312199         -0.80416934
          2.04039108          0.35692370         -3.01862891        -22.96140107
          0.06321837         -3.10476646          2.31705501          2.55367465
          0.05178579         -1.73378020         -2.65624500         -4.68321110
       -315.94173518       -419.89455004        -87.00004289          7.03094634
         19.76301016        -19.38097482          9.58865022          7.35916330
          1.14199980       -113.69098958        -91.38347707        -88.69281950
         -3.78674435         13.62079373         -1.87635714
 Traceless Quadrup. (au):
          4.43522016         -1.87562830         -2.55959186         -0.80416934
          2.04039108          0.35692370
 Charge=              0.0000 electrons
 Dipole moment (field-independent basis, Debye):
    X=             -0.7589    Y=             -2.6915    Z=             -0.0089  Tot=              2.7964
 Quadrupole moment (field-independent basis, Debye-Ang):
   XX=            -18.2633   YY=            -26.7516   ZZ=            -27.6716
   XY=             -1.0816   XZ=              2.7444   YZ=              0.4801
 Traceless Quadrupole moment (field-independent basis, Debye-Ang):
   XX=              5.9655   YY=             -2.5228   ZZ=             -3.4427
   XY=             -1.0816   XZ=              2.7444   YZ=              0.4801
 Octapole moment (field-independent basis, Debye-Ang**2):
  XXX=             -2.1485  YYY=            -16.3430  ZZZ=              0.0450  XYY=             -2.2099
  XXY=              1.6492  XXZ=              1.8176  XZZ=              0.0369  YZZ=             -1.2340
  YYZ=             -1.8906  XYZ=             -3.3333
 Hexadecapole moment (field-independent basis, Debye-Ang**3):
 XXXX=           -118.9988 YYYY=           -158.1524 ZZZZ=            -32.7684 XXXY=              2.6482
 XXXZ=              7.4437 YYYX=             -7.2998 YYYZ=              3.6115 ZZZX=              2.7718
 ZZZY=              0.4301 XXYY=            -42.8215 XXZZ=            -34.4194 YYZZ=            -33.4060
 XXYZ=             -1.4263 YYXZ=              5.1302 ZZXY=             -0.7067
 N-N= 1.254731950393D+02 E-N=-7.301777920455D+02  KE= 2.050816174197D+02
 SetAtRh:  ITypeU=  23 NETotI=      -1 ICharg=  0 NETot=      32.
 StAtR1:  I=    1 I1=    1 IA=  6 C=   6.0 OKShel=TTT
                                                  SSP
                                                  222
 StAtR1:  I=    2 I1=    2 IA=  7 C=   7.0 OKShel=TTT
                                                  SSP
                                                  223
 StAtR1:  I=    3 I1=    3 IA=  7 C=   7.0 OKShel=TTT
                                                  SSP
                                                  223
 StAtR1:  I=    4 I1=    4 IA=  7 C=   7.0 OKShel=TTT
                                                  SSP
                                                  223
 StAtR1:  I=    5 I1=    5 IA=  1 C=   1.0 OKShel=T
                                                  S
                                                  1
 StAtR1:  I=    6 I1=    6 IA=  1 C=   1.0 OKShel=T
                                                  S
                                                  1
 StAtR1:  I=    7 I1=    7 IA=  1 C=   1.0 OKShel=T
                                                  S
                                                  1
 StAtR1:  I=    8 I1=    8 IA=  1 C=   1.0 OKShel=T
                                                  S
                                                  1
 StAtR1:  I=    9 I1=    9 IA=  1 C=   1.0 OKShel=T
                                                  S
                                                  1
          I=    1 IA=  6 I1=    1 NAtG=23 NE=   6.000 C=   6.000 Err= 1.75D-11
          I=    2 IA=  7 I1=    2 NAtG=22 NE=   7.000 C=   7.000 Err= 6.08D-13
          I=    3 IA=  7 I1=    3 NAtG=22 NE=   7.000 C=   7.000 Err= 6.08D-13
          I=    4 IA=  7 I1=    4 NAtG=22 NE=   7.000 C=   7.000 Err= 6.08D-13
          I=    5 IA=  1 I1=    5 NAtG=20 NE=   1.000 C=   1.000 Err= 2.80D-12
          I=    6 IA=  1 I1=    6 NAtG=20 NE=   1.000 C=   1.000 Err= 2.80D-12
          I=    7 IA=  1 I1=    7 NAtG=20 NE=   1.000 C=   1.000 Err= 2.80D-12
          I=    8 IA=  1 I1=    8 NAtG=20 NE=   1.000 C=   1.000 Err= 2.80D-12
          I=    9 IA=  1 I1=    9 NAtG=20 NE=   1.000 C=   1.000 Err= 2.80D-12
 Pruned (  99, 590) grid will be used in numerical quadrature.
 IPart=  0 IRanGd=          0 ScrnBf=T ScrnGd=T RCrit=4.00D+00 DoMicB=T.
 CutRad = 1000.00    CtRdIn =    0.00    XCrit =  15.00   ICut = 0
 Pruned (  99, 590) grid will be used in numerical quadrature.
 IPart=  1 IRanGd=          0 ScrnBf=T ScrnGd=T RCrit=4.00D+00 DoMicB=T.
 Pruned (  99, 590) grid will be used in numerical quadrature.
 CutRad = 1000.00    CtRdIn =    0.00    XCrit =  15.00   ICut = 0
 Pruned (  99, 590) grid will be used in numerical quadrature.
 Pruned (  99, 590) grid will be used in numerical quadrature.
 Pruned (  99, 590) grid will be used in numerical quadrature.
 IPart=  0 Atom number   1 atomic number  6 has       23114 grid points.
 IPart=  3 IRanGd=          0 ScrnBf=T ScrnGd=T RCrit=4.00D+00 DoMicB=T.
 CutRad = 1000.00    CtRdIn =    0.00    XCrit =  15.00   ICut = 0
 Pruned (  99, 590) grid will be used in numerical quadrature.
 IPart=  0 Atom   1 batch    1 overlaps    9 atoms,   101 shells and     9 DB shells.   NGrid=      2408
 IPart= 12 IRanGd=          0 ScrnBf=T ScrnGd=T RCrit=4.00D+00 DoMicB=T.
 CutRad = 1000.00    CtRdIn =    0.00    XCrit =  15.00   ICut = 0
 IPart=  9 IRanGd=          0 ScrnBf=T ScrnGd=T RCrit=4.00D+00 DoMicB=T.
 Pruned (  99, 590) grid will be used in numerical quadrature.
 Pruned (  99, 590) grid will be used in numerical quadrature.
 IPart= 13 IRanGd=          0 ScrnBf=T ScrnGd=T RCrit=4.00D+00 DoMicB=T.
 Symmetry reduced    86 angular points to    86 for atom    1.
 CutRad = 1000.00    CtRdIn =    0.00    XCrit =  15.00   ICut = 0
 IPart=  2 IRanGd=          0 ScrnBf=T ScrnGd=T RCrit=4.00D+00 DoMicB=T.
 IPart=  5 IRanGd=          0 ScrnBf=T ScrnGd=T RCrit=4.00D+00 DoMicB=T.
 CutRad = 1000.00    CtRdIn =    0.00    XCrit =  15.00   ICut = 0
 CutRad = 1000.00    CtRdIn =    0.00    XCrit =  15.00   ICut = 0
 Pruned (  99, 590) grid will be used in numerical quadrature.
 Pruned (  99, 590) grid will be used in numerical quadrature.
 CutRad = 1000.00    CtRdIn =    0.00    XCrit =  15.00   ICut = 0
 Pruned (  99, 590) grid will be used in numerical quadrature.
 Pruned (  99, 590) grid will be used in numerical quadrature.
 Pruned (  99, 590) grid will be used in numerical quadrature.
 IPart=  6 IRanGd=          0 ScrnBf=T ScrnGd=T RCrit=4.00D+00 DoMicB=T.
 IPart= 10 IRanGd=          0 ScrnBf=T ScrnGd=T RCrit=4.00D+00 DoMicB=T.
 IPart= 11 IRanGd=          0 ScrnBf=T ScrnGd=T RCrit=4.00D+00 DoMicB=T.
 Pruned (  99, 590) grid will be used in numerical quadrature.
 IPart= 14 IRanGd=          0 ScrnBf=T ScrnGd=T RCrit=4.00D+00 DoMicB=T.
 Pruned (  99, 590) grid will be used in numerical quadrature.
 CutRad = 1000.00    CtRdIn =    0.00    XCrit =  15.00   ICut = 0
 CutRad = 1000.00    CtRdIn =    0.00    XCrit =  15.00   ICut = 0
 Pruned (  99, 590) grid will be used in numerical quadrature.
 IPart=  4 IRanGd=          0 ScrnBf=T ScrnGd=T RCrit=4.00D+00 DoMicB=T.
 CutRad = 1000.00    CtRdIn =    0.00    XCrit =  15.00   ICut = 0
 IPart=  7 IRanGd=          0 ScrnBf=T ScrnGd=T RCrit=4.00D+00 DoMicB=T.
 CutRad = 1000.00    CtRdIn =    0.00    XCrit =  15.00   ICut = 0
 CutRad = 1000.00    CtRdIn =    0.00    XCrit =  15.00   ICut = 0
 IPart=  8 IRanGd=          0 ScrnBf=T ScrnGd=T RCrit=4.00D+00 DoMicB=T.
 IPart= 15 IRanGd=          0 ScrnBf=T ScrnGd=T RCrit=4.00D+00 DoMicB=T.
 Pruned (  99, 590) grid will be used in numerical quadrature.
 CutRad = 1000.00    CtRdIn =    0.00    XCrit =  15.00   ICut = 0
 CutRad = 1000.00    CtRdIn =    0.00    XCrit =  15.00   ICut = 0
 IPart=  1 Atom number   1 atomic number  6 has       23114 grid points.
 CutRad = 1000.00    CtRdIn =    0.00    XCrit =  15.00   ICut = 0
 IPart=  1 Atom   1 batch    2 overlaps    9 atoms,   101 shells and     9 DB shells.   NGrid=      2522
 Pruned (  99, 590) grid will be used in numerical quadrature.
 Symmetry reduced   194 angular points to   194 for atom    1.
 IPart=  3 Atom number   1 atomic number  6 has       23114 grid points.
 IPart=  3 Atom   1 batch    3 overlaps    9 atoms,   101 shells and     9 DB shells.   NGrid=      2114
 Pruned (  99, 590) grid will be used in numerical quadrature.
 Symmetry reduced   302 angular points to   302 for atom    1.
 IPart= 12 Atom number   1 atomic number  6 has       23114 grid points.
 IPart= 12 Atom   1 batch    4 overlaps    9 atoms,   101 shells and     9 DB shells.   NGrid=      1180
 Symmetry reduced   590 angular points to   590 for atom    1.
 Pruned (  99, 590) grid will be used in numerical quadrature.
 IPart= 13 Atom number   1 atomic number  6 has       23114 grid points.
 Pruned (  99, 590) grid will be used in numerical quadrature.
 IPart= 13 Atom   1 batch    5 overlaps    9 atoms,   101 shells and     9 DB shells.   NGrid=      1180
 Pruned (  99, 590) grid will be used in numerical quadrature.
 Symmetry reduced   590 angular points to   590 for atom    1.
 IPart=  5 Atom number   1 atomic number  6 has       23114 grid points.
 IPart=  2 Atom number   1 atomic number  6 has       23114 grid points.
 IPart=  5 Atom   1 batch    7 overlaps    9 atoms,   101 shells and     9 DB shells.   NGrid=      1180
 IPart=  2 Atom   1 batch    6 overlaps    9 atoms,   101 shells and     9 DB shells.   NGrid=      1180
 Pruned (  99, 590) grid will be used in numerical quadrature.
 Symmetry reduced   590 angular points to   590 for atom    1.
 IPart=  9 Atom number   1 atomic number  6 has       23114 grid points.
 Symmetry reduced   590 angular points to   590 for atom    1.
 IPart=  9 Atom   1 batch    8 overlaps    9 atoms,   101 shells and     9 DB shells.   NGrid=      1180
 Symmetry reduced   590 angular points to   590 for atom    1.
 Pruned (  99, 590) grid will be used in numerical quadrature.
 IPart= 10 Atom number   1 atomic number  6 has       23114 grid points.
 IPart= 10 Atom   1 batch    9 overlaps    9 atoms,   101 shells and     9 DB shells.   NGrid=      1180
 Pruned (  99, 590) grid will be used in numerical quadrature.
 Pruned (  99, 590) grid will be used in numerical quadrature.
 IPart=  4 Atom number   1 atomic number  6 has       23114 grid points.
 IPart=  7 Atom number   1 atomic number  6 has       23114 grid points.
 IPart=  4 Atom   1 batch   10 overlaps    9 atoms,   101 shells and     9 DB shells.   NGrid=      1180
 IPart=  7 Atom   1 batch   11 overlaps    9 atoms,   100 shells and     9 DB shells.   NGrid=      1180
 Pruned (  99, 590) grid will be used in numerical quadrature.
 Symmetry reduced   590 angular points to   590 for atom    1.
 IPart=  8 Atom number   1 atomic number  6 has       23114 grid points.
 Symmetry reduced   590 angular points to   590 for atom    1.
 Pruned (  99, 590) grid will be used in numerical quadrature.
 IPart=  8 Atom   1 batch   13 overlaps    9 atoms,   100 shells and     9 DB shells.   NGrid=       604
 IPart= 15 Atom number   1 atomic number  6 has       23114 grid points.
 Pruned (  99, 590) grid will be used in numerical quadrature.
 Symmetry reduced   302 angular points to   302 for atom    1.
 IPart= 15 Atom   1 batch   15 overlaps    9 atoms,    94 shells and     9 DB shells.   NGrid=       604
 Symmetry reduced   590 angular points to   590 for atom    1.
 IPart= 14 Atom number   1 atomic number  6 has       23114 grid points.
 Symmetry reduced   302 angular points to   302 for atom    1.
 IPart= 14 Atom   1 batch   14 overlaps    9 atoms,    99 shells and     9 DB shells.   NGrid=       604
 Pruned (  99, 590) grid will be used in numerical quadrature.
 Symmetry reduced   302 angular points to   302 for atom    1.
 IPart= 11 Atom number   1 atomic number  6 has       23114 grid points.
 IPart= 11 Atom   1 batch   12 overlaps    9 atoms,   100 shells and     9 DB shells.   NGrid=       590
 Symmetry reduced   590 angular points to   590 for atom    1.
 Pruned (  99, 590) grid will be used in numerical quadrature.
 IPart=  6 Atom number   1 atomic number  6 has       23114 grid points.
 IPart=  6 Atom   1 batch   16 overlaps    9 atoms,    86 shells and     9 DB shells.   NGrid=       604
 Symmetry reduced   302 angular points to   302 for atom    1.
 IPart=  6 Atom   1 batch   17 overlaps    9 atoms,    71 shells and     9 DB shells.   NGrid=       604
 IPart= 15 Atom   1 batch   18 overlaps    9 atoms,    54 shells and     9 DB shells.   NGrid=       604
 IPart= 15 Atom   1 batch   19 overlaps    9 atoms,    40 shells and     9 DB shells.   NGrid=       604
 IPart=  6 Atom   1 batch   20 overlaps    9 atoms,    24 shells and     5 DB shells.   NGrid=       604
 IPart= 14 Atom   1 batch   21 overlaps    9 atoms,    13 shells and     0 DB shells.   NGrid=       604
 IPart= 11 Atom   1 batch   22 overlaps    9 atoms,     5 shells and     0 DB shells.   NGrid=       604
 Symmetry reduced   302 angular points to   302 for atom    1.
 Pruned (  99, 590) grid will be used in numerical quadrature.
 IPart=  6 Atom number   2 atomic number  7 has       23416 grid points.
 IPart=  6 Atom   2 batch    1 overlaps    9 atoms,    98 shells and     9 DB shells.   NGrid=      2408
 Pruned (  99, 590) grid will be used in numerical quadrature.
 Symmetry reduced    86 angular points to    86 for atom    2.
 IPart= 14 Atom number   2 atomic number  7 has       23416 grid points.
 Pruned (  99, 590) grid will be used in numerical quadrature.
 IPart= 14 Atom   2 batch    2 overlaps    9 atoms,    99 shells and     9 DB shells.   NGrid=      2522
 IPart= 11 Atom number   2 atomic number  7 has       23416 grid points.
 Symmetry reduced   194 angular points to   194 for atom    2.
 IPart= 11 Atom   2 batch    3 overlaps    9 atoms,    99 shells and     9 DB shells.   NGrid=      2114
 Pruned (  99, 590) grid will be used in numerical quadrature.
 Symmetry reduced   302 angular points to   302 for atom    2.
 IPart= 15 Atom number   2 atomic number  7 has       23416 grid points.
 IPart= 15 Atom   2 batch    4 overlaps    9 atoms,    99 shells and     9 DB shells.   NGrid=      1180
 Symmetry reduced   590 angular points to   590 for atom    2.
 Pruned (  99, 590) grid will be used in numerical quadrature.
 IPart=  8 Atom number   2 atomic number  7 has       23416 grid points.
 IPart=  8 Atom   2 batch    5 overlaps    9 atoms,    99 shells and     9 DB shells.   NGrid=      1180
 Symmetry reduced   590 angular points to   590 for atom    2.
 Pruned (  99, 590) grid will be used in numerical quadrature.
 IPart=  7 Atom number   2 atomic number  7 has       23416 grid points.
 IPart=  7 Atom   2 batch    6 overlaps    9 atoms,   100 shells and     9 DB shells.   NGrid=      1180
 Symmetry reduced   590 angular points to   590 for atom    2.
 Pruned (  99, 590) grid will be used in numerical quadrature.
 Pruned (  99, 590) grid will be used in numerical quadrature.
 IPart= 12 Atom number   2 atomic number  7 has       23416 grid points.
 IPart= 13 Atom number   2 atomic number  7 has       23416 grid points.
 IPart= 12 Atom   2 batch    7 overlaps    9 atoms,   101 shells and     9 DB shells.   NGrid=      1180
 IPart= 13 Atom   2 batch    8 overlaps    9 atoms,   101 shells and     9 DB shells.   NGrid=      1180
 Symmetry reduced   590 angular points to   590 for atom    2.
 Symmetry reduced   590 angular points to   590 for atom    2.
 Pruned (  99, 590) grid will be used in numerical quadrature.
 IPart=  4 Atom number   2 atomic number  7 has       23416 grid points.
 IPart=  4 Atom   2 batch    9 overlaps    9 atoms,   101 shells and     9 DB shells.   NGrid=      1180
 Symmetry reduced   590 angular points to   590 for atom    2.
 Pruned (  99, 590) grid will be used in numerical quadrature.
 Pruned (  99, 590) grid will be used in numerical quadrature.
 IPart=  2 Atom number   2 atomic number  7 has       23416 grid points.
 IPart=  5 Atom number   2 atomic number  7 has       23416 grid points.
 IPart=  2 Atom   2 batch   10 overlaps    9 atoms,   101 shells and     9 DB shells.   NGrid=      1180
 IPart=  5 Atom   2 batch   11 overlaps    9 atoms,   101 shells and     9 DB shells.   NGrid=      1180
 Symmetry reduced   590 angular points to   590 for atom    2.
 Symmetry reduced   590 angular points to   590 for atom    2.
 Pruned (  99, 590) grid will be used in numerical quadrature.
 IPart= 10 Atom number   2 atomic number  7 has       23416 grid points.
 IPart= 10 Atom   2 batch   12 overlaps    9 atoms,   100 shells and     9 DB shells.   NGrid=       590
 Symmetry reduced   590 angular points to   590 for atom    2.
 Pruned (  99, 590) grid will be used in numerical quadrature.
 IPart=  9 Atom number   2 atomic number  7 has       23416 grid points.
 IPart=  9 Atom   2 batch   13 overlaps    9 atoms,   100 shells and     9 DB shells.   NGrid=       604
 Symmetry reduced   302 angular points to   302 for atom    2.
 IPart= 15 Atom   2 batch   14 overlaps    9 atoms,   100 shells and     9 DB shells.   NGrid=       604
 Symmetry reduced   302 angular points to   302 for atom    2.
 IPart=  8 Atom   2 batch   15 overlaps    9 atoms,    98 shells and     9 DB shells.   NGrid=       604
 IPart= 10 Atom   2 batch   16 overlaps    9 atoms,    95 shells and     9 DB shells.   NGrid=       604
 Symmetry reduced   302 angular points to   302 for atom    2.
 Symmetry reduced   302 angular points to   302 for atom    2.
 IPart=  9 Atom   2 batch   17 overlaps    9 atoms,    89 shells and     9 DB shells.   NGrid=       604
 Pruned (  99, 590) grid will be used in numerical quadrature.
 IPart=  3 Atom number   2 atomic number  7 has       23416 grid points.
 IPart=  3 Atom   2 batch   18 overlaps    9 atoms,    73 shells and     9 DB shells.   NGrid=       604
 Symmetry reduced   302 angular points to   302 for atom    2.
 IPart=  9 Atom   2 batch   19 overlaps    9 atoms,    56 shells and     9 DB shells.   NGrid=       604
 IPart= 10 Atom   2 batch   20 overlaps    9 atoms,    36 shells and     8 DB shells.   NGrid=       604
 IPart=  7 Atom   2 batch   21 overlaps    9 atoms,    20 shells and     3 DB shells.   NGrid=       604
 Symmetry reduced   302 angular points to   302 for atom    2.
 IPart= 10 Atom   2 batch   22 overlaps    9 atoms,    11 shells and     0 DB shells.   NGrid=       604
 IPart=  9 Atom   2 batch   23 overlaps    9 atoms,     3 shells and     0 DB shells.   NGrid=       302
 Pruned (  99, 590) grid will be used in numerical quadrature.
 IPart=  0 Atom number   2 atomic number  7 has       23416 grid points.
 Pruned (  99, 590) grid will be used in numerical quadrature.
 IPart=  0 Atom number   3 atomic number  7 has       23416 grid points.
 IPart=  0 Atom   3 batch    1 overlaps    9 atoms,    96 shells and     9 DB shells.   NGrid=      2408
 Symmetry reduced    86 angular points to    86 for atom    3.
 Pruned (  99, 590) grid will be used in numerical quadrature.
 IPart=  9 Atom number   3 atomic number  7 has       23416 grid points.
 IPart=  9 Atom   3 batch    2 overlaps    9 atoms,    99 shells and     9 DB shells.   NGrid=      2522
 Symmetry reduced   194 angular points to   194 for atom    3.
 Pruned (  99, 590) grid will be used in numerical quadrature.
 IPart=  7 Atom number   3 atomic number  7 has       23416 grid points.
 IPart=  7 Atom   3 batch    3 overlaps    9 atoms,    99 shells and     9 DB shells.   NGrid=      2114
 Symmetry reduced   302 angular points to   302 for atom    3.
 Pruned (  99, 590) grid will be used in numerical quadrature.
 IPart=  8 Atom number   3 atomic number  7 has       23416 grid points.
 Pruned (  99, 590) grid will be used in numerical quadrature.
 IPart=  8 Atom   3 batch    4 overlaps    9 atoms,    99 shells and     9 DB shells.   NGrid=      1180
 IPart=  5 Atom number   3 atomic number  7 has       23416 grid points.
 Symmetry reduced   590 angular points to   590 for atom    3.
 IPart=  5 Atom   3 batch    5 overlaps    9 atoms,    99 shells and     9 DB shells.   NGrid=      1180
 Symmetry reduced   590 angular points to   590 for atom    3.
 Pruned (  99, 590) grid will be used in numerical quadrature.
 IPart= 10 Atom number   3 atomic number  7 has       23416 grid points.
 IPart= 10 Atom   3 batch    6 overlaps    9 atoms,   101 shells and     9 DB shells.   NGrid=      1180
 Symmetry reduced   590 angular points to   590 for atom    3.
 Pruned (  99, 590) grid will be used in numerical quadrature.
 IPart= 15 Atom number   3 atomic number  7 has       23416 grid points.
 IPart= 15 Atom   3 batch    7 overlaps    9 atoms,   101 shells and     9 DB shells.   NGrid=      1180
 Symmetry reduced   590 angular points to   590 for atom    3.
 Pruned (  99, 590) grid will be used in numerical quadrature.
 IPart=  3 Atom number   3 atomic number  7 has       23416 grid points.
 IPart=  3 Atom   3 batch    8 overlaps    9 atoms,   101 shells and     9 DB shells.   NGrid=      1180
 Symmetry reduced   590 angular points to   590 for atom    3.
 Pruned (  99, 590) grid will be used in numerical quadrature.
 IPart=  2 Atom number   3 atomic number  7 has       23416 grid points.
 IPart=  2 Atom   3 batch    9 overlaps    9 atoms,   101 shells and     9 DB shells.   NGrid=      1180
 Symmetry reduced   590 angular points to   590 for atom    3.
 Pruned (  99, 590) grid will be used in numerical quadrature.
 IPart= 13 Atom number   3 atomic number  7 has       23416 grid points.
 IPart= 13 Atom   3 batch   10 overlaps    9 atoms,   101 shells and     9 DB shells.   NGrid=      1180
 Symmetry reduced   590 angular points to   590 for atom    3.
 Pruned (  99, 590) grid will be used in numerical quadrature.
 IPart= 12 Atom number   3 atomic number  7 has       23416 grid points.
 IPart= 12 Atom   3 batch   11 overlaps    9 atoms,   101 shells and     9 DB shells.   NGrid=      1180
 Symmetry reduced   590 angular points to   590 for atom    3.
 Pruned (  99, 590) grid will be used in numerical quadrature.
 IPart=  4 Atom number   3 atomic number  7 has       23416 grid points.
 IPart=  4 Atom   3 batch   12 overlaps    9 atoms,   100 shells and     9 DB shells.   NGrid=       590
 Symmetry reduced   590 angular points to   590 for atom    3.
 Pruned (  99, 590) grid will be used in numerical quadrature.
 IPart=  1 Atom number   2 atomic number  7 has       23416 grid points.
 Pruned (  99, 590) grid will be used in numerical quadrature.
 IPart=  1 Atom number   3 atomic number  7 has       23416 grid points.
 IPart=  1 Atom   3 batch   13 overlaps    9 atoms,   100 shells and     9 DB shells.   NGrid=       604
 Symmetry reduced   302 angular points to   302 for atom    3.
 Pruned (  99, 590) grid will be used in numerical quadrature.
 IPart=  6 Atom number   3 atomic number  7 has       23416 grid points.
 IPart=  6 Atom   3 batch   14 overlaps    9 atoms,   100 shells and     9 DB shells.   NGrid=       604
 Symmetry reduced   302 angular points to   302 for atom    3.
 Pruned (  99, 590) grid will be used in numerical quadrature.
 IPart= 11 Atom number   3 atomic number  7 has       23416 grid points.
 IPart= 11 Atom   3 batch   15 overlaps    9 atoms,    98 shells and     9 DB shells.   NGrid=       604
 Symmetry reduced   302 angular points to   302 for atom    3.
 Pruned (  99, 590) grid will be used in numerical quadrature.
 IPart= 14 Atom number   3 atomic number  7 has       23416 grid points.
 IPart= 14 Atom   3 batch   16 overlaps    9 atoms,    95 shells and     9 DB shells.   NGrid=       604
 Symmetry reduced   302 angular points to   302 for atom    3.
 IPart=  4 Atom   3 batch   17 overlaps    9 atoms,    89 shells and     9 DB shells.   NGrid=       604
 Symmetry reduced   302 angular points to   302 for atom    3.
 IPart=  1 Atom   3 batch   18 overlaps    9 atoms,    74 shells and     9 DB shells.   NGrid=       604
 IPart= 11 Atom   3 batch   19 overlaps    9 atoms,    56 shells and     9 DB shells.   NGrid=       604
 IPart=  6 Atom   3 batch   20 overlaps    9 atoms,    37 shells and     8 DB shells.   NGrid=       604
 IPart= 14 Atom   3 batch   21 overlaps    9 atoms,    20 shells and     3 DB shells.   NGrid=       604
 IPart=  6 Atom   3 batch   22 overlaps    9 atoms,    11 shells and     0 DB shells.   NGrid=       604
 IPart= 14 Atom   3 batch   23 overlaps    9 atoms,     3 shells and     0 DB shells.   NGrid=       302
 Pruned (  99, 590) grid will be used in numerical quadrature.
 IPart=  4 Atom number   4 atomic number  7 has       23416 grid points.
 IPart=  4 Atom   4 batch    1 overlaps    9 atoms,    97 shells and     9 DB shells.   NGrid=      2408
 Symmetry reduced    86 angular points to    86 for atom    4.
 Pruned (  99, 590) grid will be used in numerical quadrature.
 IPart= 14 Atom number   4 atomic number  7 has       23416 grid points.
 IPart= 14 Atom   4 batch    2 overlaps    9 atoms,    99 shells and     9 DB shells.   NGrid=      2522
 Symmetry reduced   194 angular points to   194 for atom    4.
 Pruned (  99, 590) grid will be used in numerical quadrature.
 IPart= 11 Atom number   4 atomic number  7 has       23416 grid points.
 IPart= 11 Atom   4 batch    3 overlaps    9 atoms,    99 shells and     9 DB shells.   NGrid=      2114
 Symmetry reduced   302 angular points to   302 for atom    4.
 Pruned (  99, 590) grid will be used in numerical quadrature.
 IPart=  6 Atom number   4 atomic number  7 has       23416 grid points.
 IPart=  6 Atom   4 batch    4 overlaps    9 atoms,    99 shells and     9 DB shells.   NGrid=      1180
 Symmetry reduced   590 angular points to   590 for atom    4.
 Pruned (  99, 590) grid will be used in numerical quadrature.
 IPart=  1 Atom number   4 atomic number  7 has       23416 grid points.
 IPart=  1 Atom   4 batch    5 overlaps    9 atoms,    99 shells and     9 DB shells.   NGrid=      1180
 Symmetry reduced   590 angular points to   590 for atom    4.
 Pruned (  99, 590) grid will be used in numerical quadrature.
 IPart=  8 Atom number   4 atomic number  7 has       23416 grid points.
 IPart=  8 Atom   4 batch    6 overlaps    9 atoms,   100 shells and     9 DB shells.   NGrid=      1180
 Symmetry reduced   590 angular points to   590 for atom    4.
 Pruned (  99, 590) grid will be used in numerical quadrature.
 IPart= 12 Atom number   4 atomic number  7 has       23416 grid points.
 IPart= 12 Atom   4 batch    7 overlaps    9 atoms,   101 shells and     9 DB shells.   NGrid=      1180
 Symmetry reduced   590 angular points to   590 for atom    4.
 Pruned (  99, 590) grid will be used in numerical quadrature.
 IPart=  5 Atom number   4 atomic number  7 has       23416 grid points.
 IPart=  5 Atom   4 batch    8 overlaps    9 atoms,   101 shells and     9 DB shells.   NGrid=      1180
 Symmetry reduced   590 angular points to   590 for atom    4.
 Pruned (  99, 590) grid will be used in numerical quadrature.
 IPart= 13 Atom number   4 atomic number  7 has       23416 grid points.
 IPart= 13 Atom   4 batch    9 overlaps    9 atoms,   101 shells and     9 DB shells.   NGrid=      1180
 Symmetry reduced   590 angular points to   590 for atom    4.
 Pruned (  99, 590) grid will be used in numerical quadrature.
 IPart= 15 Atom number   4 atomic number  7 has       23416 grid points.
 IPart= 15 Atom   4 batch   10 overlaps    9 atoms,   101 shells and     9 DB shells.   NGrid=      1180
 Symmetry reduced   590 angular points to   590 for atom    4.
 Pruned (  99, 590) grid will be used in numerical quadrature.
 IPart= 10 Atom number   4 atomic number  7 has       23416 grid points.
 IPart= 10 Atom   4 batch   11 overlaps    9 atoms,   101 shells and     9 DB shells.   NGrid=      1180
 Pruned (  99, 590) grid will be used in numerical quadrature.
 Symmetry reduced   590 angular points to   590 for atom    4.
 IPart=  2 Atom number   4 atomic number  7 has       23416 grid points.
 IPart=  2 Atom   4 batch   12 overlaps    9 atoms,   100 shells and     9 DB shells.   NGrid=       590
 Symmetry reduced   590 angular points to   590 for atom    4.
 Pruned (  99, 590) grid will be used in numerical quadrature.
 IPart=  3 Atom number   4 atomic number  7 has       23416 grid points.
 IPart=  3 Atom   4 batch   13 overlaps    9 atoms,   100 shells and     9 DB shells.   NGrid=       604
 Symmetry reduced   302 angular points to   302 for atom    4.
 IPart=  2 Atom   4 batch   14 overlaps    9 atoms,   100 shells and     9 DB shells.   NGrid=       604
 Symmetry reduced   302 angular points to   302 for atom    4.
 IPart=  3 Atom   4 batch   15 overlaps    9 atoms,    98 shells and     9 DB shells.   NGrid=       604
 Pruned (  99, 590) grid will be used in numerical quadrature.
 IPart=  7 Atom number   4 atomic number  7 has       23416 grid points.
 IPart=  7 Atom   4 batch   16 overlaps    9 atoms,    95 shells and     9 DB shells.   NGrid=       604
 Symmetry reduced   302 angular points to   302 for atom    4.
 Pruned (  99, 590) grid will be used in numerical quadrature.
 IPart=  0 Atom number   4 atomic number  7 has       23416 grid points.
 IPart=  0 Atom   4 batch   17 overlaps    9 atoms,    91 shells and     9 DB shells.   NGrid=       604
 Symmetry reduced   302 angular points to   302 for atom    4.
 Pruned (  99, 590) grid will be used in numerical quadrature.
 IPart=  9 Atom number   4 atomic number  7 has       23416 grid points.
 IPart=  9 Atom   4 batch   18 overlaps    9 atoms,    76 shells and     9 DB shells.   NGrid=       604
 Symmetry reduced   302 angular points to   302 for atom    4.
 IPart=  6 Atom   4 batch   19 overlaps    9 atoms,    58 shells and     9 DB shells.   NGrid=       604
 Symmetry reduced   302 angular points to   302 for atom    4.
 IPart=  1 Atom   4 batch   20 overlaps    9 atoms,    38 shells and     8 DB shells.   NGrid=       604
 Symmetry reduced   302 angular points to   302 for atom    4.
 IPart=  0 Atom   4 batch   21 overlaps    9 atoms,    22 shells and     4 DB shells.   NGrid=       604
 IPart=  1 Atom   4 batch   22 overlaps    9 atoms,    11 shells and     0 DB shells.   NGrid=       604
 IPart=  8 Atom   4 batch   23 overlaps    9 atoms,     4 shells and     0 DB shells.   NGrid=       302
 Symmetry reduced   302 angular points to   302 for atom    4.
 Pruned (  99, 590) grid will be used in numerical quadrature.
 IPart=  6 Atom number   5 atomic number  1 has       23466 grid points.
 IPart=  6 Atom   5 batch    1 overlaps    9 atoms,    89 shells and     9 DB shells.   NGrid=      2838
 Symmetry reduced    86 angular points to    86 for atom    5.
 Pruned (  99, 590) grid will be used in numerical quadrature.
 Pruned (  99, 590) grid will be used in numerical quadrature.
 IPart=  0 Atom number   5 atomic number  1 has       23466 grid points.
 Pruned (  99, 590) grid will be used in numerical quadrature.
 IPart=  0 Atom   5 batch    2 overlaps    9 atoms,    90 shells and     9 DB shells.   NGrid=      1552
 IPart=  7 Atom number   5 atomic number  1 has       23466 grid points.
 Pruned (  99, 590) grid will be used in numerical quadrature.
 Symmetry reduced   194 angular points to   194 for atom    5.
 IPart=  7 Atom   5 batch    4 overlaps    9 atoms,    97 shells and     9 DB shells.   NGrid=      1180
 Pruned (  99, 590) grid will be used in numerical quadrature.
 Symmetry reduced   590 angular points to   590 for atom    5.
 IPart=  3 Atom number   5 atomic number  1 has       23466 grid points.
 IPart=  8 Atom number   5 atomic number  1 has       23466 grid points.
 Pruned (  99, 590) grid will be used in numerical quadrature.
 IPart=  8 Atom   5 batch    5 overlaps    9 atoms,    97 shells and     9 DB shells.   NGrid=      1180
 IPart= 12 Atom number   5 atomic number  1 has       23466 grid points.
 IPart=  1 Atom number   5 atomic number  1 has       23466 grid points.
 Symmetry reduced   590 angular points to   590 for atom    5.
 IPart= 12 Atom   5 batch    3 overlaps    9 atoms,    94 shells and     9 DB shells.   NGrid=      2416
 IPart=  1 Atom   5 batch    7 overlaps    9 atoms,    99 shells and     9 DB shells.   NGrid=      1180
 Symmetry reduced   302 angular points to   302 for atom    5.
 IPart=  3 Atom   5 batch    6 overlaps    9 atoms,    97 shells and     9 DB shells.   NGrid=      1180
 Symmetry reduced   590 angular points to   590 for atom    5.
 Symmetry reduced   590 angular points to   590 for atom    5.
 Pruned (  99, 590) grid will be used in numerical quadrature.
 IPart= 10 Atom number   5 atomic number  1 has       23466 grid points.
 IPart= 10 Atom   5 batch    8 overlaps    9 atoms,   100 shells and     9 DB shells.   NGrid=      1180
 Symmetry reduced   590 angular points to   590 for atom    5.
 Pruned (  99, 590) grid will be used in numerical quadrature.
 IPart= 13 Atom number   5 atomic number  1 has       23466 grid points.
 IPart= 13 Atom   5 batch    9 overlaps    9 atoms,   100 shells and     9 DB shells.   NGrid=      1180
 Symmetry reduced   590 angular points to   590 for atom    5.
 Pruned (  99, 590) grid will be used in numerical quadrature.
 Pruned (  99, 590) grid will be used in numerical quadrature.
 IPart= 15 Atom number   5 atomic number  1 has       23466 grid points.
 IPart=  5 Atom number   5 atomic number  1 has       23466 grid points.
 IPart= 15 Atom   5 batch   10 overlaps    9 atoms,   100 shells and     9 DB shells.   NGrid=      1180
 IPart=  5 Atom   5 batch   11 overlaps    9 atoms,   101 shells and     9 DB shells.   NGrid=      1180
 Symmetry reduced   590 angular points to   590 for atom    5.
 Symmetry reduced   590 angular points to   590 for atom    5.
 Pruned (  99, 590) grid will be used in numerical quadrature.
 IPart=  9 Atom number   5 atomic number  1 has       23466 grid points.
 IPart=  9 Atom   5 batch   12 overlaps    9 atoms,   101 shells and     9 DB shells.   NGrid=      1180
 Symmetry reduced   590 angular points to   590 for atom    5.
 Pruned (  99, 590) grid will be used in numerical quadrature.
 IPart=  2 Atom number   5 atomic number  1 has       23466 grid points.
 IPart=  2 Atom   5 batch   13 overlaps    9 atoms,   101 shells and     9 DB shells.   NGrid=       604
 Symmetry reduced   302 angular points to   302 for atom    5.
 Pruned (  99, 590) grid will be used in numerical quadrature.
 IPart=  4 Atom number   5 atomic number  1 has       23466 grid points.
 IPart=  4 Atom   5 batch   14 overlaps    9 atoms,   100 shells and     9 DB shells.   NGrid=       604
 Symmetry reduced   302 angular points to   302 for atom    5.
 Pruned (  99, 590) grid will be used in numerical quadrature.
 IPart= 11 Atom number   5 atomic number  1 has       23466 grid points.
 IPart= 11 Atom   5 batch   15 overlaps    9 atoms,    97 shells and     9 DB shells.   NGrid=       604
 Symmetry reduced   302 angular points to   302 for atom    5.
 IPart=  2 Atom   5 batch   16 overlaps    9 atoms,    92 shells and     9 DB shells.   NGrid=       604
 Pruned (  99, 590) grid will be used in numerical quadrature.
 IPart= 14 Atom number   5 atomic number  1 has       23466 grid points.
 IPart= 14 Atom   5 batch   17 overlaps    9 atoms,    84 shells and     9 DB shells.   NGrid=       604
 Symmetry reduced   302 angular points to   302 for atom    5.
 IPart=  7 Atom   5 batch   18 overlaps    9 atoms,    66 shells and     9 DB shells.   NGrid=       604
 Symmetry reduced   302 angular points to   302 for atom    5.
 IPart=  8 Atom   5 batch   19 overlaps    9 atoms,    45 shells and     8 DB shells.   NGrid=       604
 Symmetry reduced   302 angular points to   302 for atom    5.
 IPart=  3 Atom   5 batch   20 overlaps    9 atoms,    26 shells and     4 DB shells.   NGrid=       604
 Symmetry reduced   302 angular points to   302 for atom    5.
 IPart=  1 Atom   5 batch   21 overlaps    9 atoms,    12 shells and     0 DB shells.   NGrid=       604
 Symmetry reduced   302 angular points to   302 for atom    5.
 IPart=  2 Atom   5 batch   22 overlaps    9 atoms,     4 shells and     0 DB shells.   NGrid=       604
 Pruned (  99, 590) grid will be used in numerical quadrature.
 IPart= 11 Atom number   6 atomic number  1 has       23466 grid points.
 IPart= 11 Atom   6 batch    1 overlaps    9 atoms,    90 shells and     9 DB shells.   NGrid=      2838
 Pruned (  99, 590) grid will be used in numerical quadrature.
 Symmetry reduced    86 angular points to    86 for atom    6.
 IPart= 13 Atom number   6 atomic number  1 has       23466 grid points.
 IPart= 13 Atom   6 batch    2 overlaps    9 atoms,    92 shells and     9 DB shells.   NGrid=      1552
 Symmetry reduced   194 angular points to   194 for atom    6.
 Pruned (  99, 590) grid will be used in numerical quadrature.
 Pruned (  99, 590) grid will be used in numerical quadrature.
 IPart=  8 Atom number   6 atomic number  1 has       23466 grid points.
 IPart=  3 Atom number   6 atomic number  1 has       23466 grid points.
 IPart=  8 Atom   6 batch    3 overlaps    9 atoms,    96 shells and     9 DB shells.   NGrid=      2416
 IPart=  3 Atom   6 batch    4 overlaps    9 atoms,    97 shells and     9 DB shells.   NGrid=      1180
 Symmetry reduced   302 angular points to   302 for atom    6.
 Symmetry reduced   590 angular points to   590 for atom    6.
 Pruned (  99, 590) grid will be used in numerical quadrature.
 IPart=  9 Atom number   6 atomic number  1 has       23466 grid points.
 Pruned (  99, 590) grid will be used in numerical quadrature.
 IPart=  9 Atom   6 batch    5 overlaps    9 atoms,    97 shells and     9 DB shells.   NGrid=      1180
 IPart=  4 Atom number   6 atomic number  1 has       23466 grid points.
 Pruned (  99, 590) grid will be used in numerical quadrature.
 Symmetry reduced   590 angular points to   590 for atom    6.
 IPart= 14 Atom number   6 atomic number  1 has       23466 grid points.
 Pruned (  99, 590) grid will be used in numerical quadrature.
 IPart=  4 Atom   6 batch    6 overlaps    9 atoms,    98 shells and     9 DB shells.   NGrid=      1180
 IPart=  7 Atom number   6 atomic number  1 has       23466 grid points.
[...]
 2824 Fit      -0.013124
 2825 Fit      -0.013641
 2826 Fit      -0.014609
 2827 Fit      -0.016151
 2828 Fit      -0.017910
 2829 Fit      -0.018982
 2830 Fit      -0.004400
 2831 Fit      -0.005115
 2832 Fit      -0.007008
 2833 Fit      -0.009148
 2834 Fit      -0.010899
 2835 Fit      -0.012059
 2836 Fit      -0.012715
 2837 Fit      -0.014032
 2838 Fit      -0.014833
 2839 Fit      -0.015902
 2840 Fit      -0.016703
 2841 Fit      -0.016046
 2842 Fit      -0.013557
 2843 Fit      -0.010574
 2844 Fit      -0.008768
 2845 Fit      -0.008870
 2846 Fit      -0.010350
 2847 Fit      -0.012036
 2848 Fit      -0.013245
 2849 Fit      -0.014248
 2850 Fit      -0.015117
 2851 Fit      -0.014671
 2852 Fit      -0.012505
 2853 Fit      -0.011693
 2854 Fit      -0.012935
 2855 Fit      -0.013740
 2856 Fit      -0.017879
 2857 Fit      -0.018335
 2858 Fit      -0.019677
 2859 Fit      -0.018626
 2860 Fit      -0.016795
 2861 Fit      -0.016144
 2862 Fit      -0.016560
 2863 Fit      -0.018176
 2864 Fit      -0.020402
 2865 Fit      -0.021436
 2866 Fit      -0.020788
 2867 Fit      -0.018864
 2868 Fit      -0.016627
 2869 Fit      -0.015051
 2870 Fit      -0.014565
 2871 Fit      -0.014659
 2872 Fit      -0.015896
 2873 Fit      -0.017380
 2874 Fit      -0.020117
 2875 Fit      -0.022207
 2876 Fit      -0.023103
 2877 Fit      -0.022642
 2878 Fit      -0.021015
 2879 Fit      -0.018656
 2880 Fit      -0.016115
 2881 Fit      -0.013948
 2882 Fit      -0.012609
 2883 Fit      -0.012348
 2884 Fit      -0.013014
 2885 Fit      -0.014729
 2886 Fit      -0.015864
 2887 Fit      -0.019177
 2888 Fit      -0.022077
 2889 Fit      -0.023999
 2890 Fit      -0.024669
 2891 Fit      -0.024080
 2892 Fit      -0.022411
 2893 Fit      -0.019958
 2894 Fit      -0.017092
 2895 Fit      -0.014216
 2896 Fit      -0.011724
 2897 Fit      -0.009959
 2898 Fit      -0.009205
 2899 Fit      -0.009696
 2900 Fit      -0.013439
 2901 Fit      -0.017236
 2902 Fit      -0.020830
 2903 Fit      -0.023666
 2904 Fit      -0.025445
 2905 Fit      -0.026075
 2906 Fit      -0.025606
 2907 Fit      -0.024175
 2908 Fit      -0.021968
 2909 Fit      -0.019206
 2910 Fit      -0.016138
 2911 Fit      -0.013033
 2912 Fit      -0.010163
 2913 Fit      -0.007773
 2914 Fit      -0.006070
 2915 Fit      -0.005254
 2916 Fit      -0.005615
 2917 Fit      -0.014536
 2918 Fit      -0.019139
 2919 Fit      -0.022919
 2920 Fit      -0.025570
 2921 Fit      -0.027011
 2922 Fit      -0.027288
 2923 Fit      -0.026511
 2924 Fit      -0.024828
 2925 Fit      -0.022403
 2926 Fit      -0.019418
 2927 Fit      -0.016069
 2928 Fit      -0.012575
 2929 Fit      -0.009170
 2930 Fit      -0.006089
 2931 Fit      -0.003527
 2932 Fit      -0.001619
 2933 Fit      -0.000503
 2934 Fit      -0.016537
 2935 Fit      -0.021405
 2936 Fit      -0.024981
 2937 Fit      -0.027249
 2938 Fit      -0.028291
 2939 Fit      -0.028225
 2940 Fit      -0.027183
 2941 Fit      -0.025305
 2942 Fit      -0.022730
 2943 Fit      -0.019602
 2944 Fit      -0.016073
 2945 Fit      -0.012312
 2946 Fit      -0.008511
 2947 Fit      -0.019580
 2948 Fit      -0.024111
 2949 Fit      -0.027124
 2950 Fit      -0.028789
 2951 Fit      -0.029266
 2952 Fit      -0.028706
 2953 Fit      -0.027246
 2954 Fit      -0.025016
 2955 Fit      -0.022138
 2956 Fit      -0.018731
 2957 Fit      -0.014922
 2958 Fit      -0.010852
 2959 Fit      -0.017330
 2960 Fit      -0.022822
 2961 Fit      -0.026557
 2962 Fit      -0.028825
 2963 Fit      -0.029843
 2964 Fit      -0.029784
 2965 Fit      -0.028794
 2966 Fit      -0.026996
 2967 Fit      -0.024502
 2968 Fit      -0.021413
 2969 Fit      -0.017823
 2970 Fit      -0.013834
 2971 Fit      -0.009562
 2972 Fit      -0.021783
 2973 Fit      -0.026055
 2974 Fit      -0.028737
 2975 Fit      -0.030109
 2976 Fit      -0.030369
 2977 Fit      -0.029675
 2978 Fit      -0.028152
 2979 Fit      -0.025908
 2980 Fit      -0.023037
 2981 Fit      -0.019623
 2982 Fit      -0.015745
 2983 Fit      -0.011491
 2984 Fit      -0.021812
 2985 Fit      -0.026244
 2986 Fit      -0.028989
 2987 Fit      -0.030367
 2988 Fit      -0.030598
 2989 Fit      -0.029846
 2990 Fit      -0.028244
 2991 Fit      -0.025902
 2992 Fit      -0.022911
 2993 Fit      -0.019353
 2994 Fit      -0.015305
 2995 Fit      -0.010849
 2996 Fit      -0.022135
 2997 Fit      -0.026448
 2998 Fit      -0.029109
 2999 Fit      -0.030423
 3000 Fit      -0.030602
 3001 Fit      -0.029808
 3002 Fit      -0.028169
 3003 Fit      -0.025791
 3004 Fit      -0.022765
 3005 Fit      -0.019170
 3006 Fit      -0.015079
 3007 Fit      -0.010572
 3008 Fit      -0.022730
 3009 Fit      -0.026659
 3010 Fit      -0.029093
 3011 Fit      -0.030275
 3012 Fit      -0.030384
 3013 Fit      -0.029564
 3014 Fit      -0.027930
 3015 Fit      -0.025583
 3016 Fit      -0.022608
 3017 Fit      -0.019082
 3018 Fit      -0.015079
 3019 Fit      -0.010678
 3020 Fit      -0.019478
 3021 Fit      -0.024220
 3022 Fit      -0.027431
 3023 Fit      -0.029313
 3024 Fit      -0.030034
 3025 Fit      -0.029736
 3026 Fit      -0.028543
 3027 Fit      -0.026563
 3028 Fit      -0.023895
 3029 Fit      -0.020625
 3030 Fit      -0.016840
 3031 Fit      -0.012626
 3032 Fit      -0.022111
 3033 Fit      -0.025725
 3034 Fit      -0.028086
 3035 Fit      -0.029264
 3036 Fit      -0.029360
 3037 Fit      -0.028486
 3038 Fit      -0.026753
 3039 Fit      -0.024270
 3040 Fit      -0.021138
 3041 Fit      -0.017460
 3042 Fit      -0.013345
 3043 Fit      -0.008923
 3044 Fit      -0.020638
 3045 Fit      -0.024061
 3046 Fit      -0.026630
 3047 Fit      -0.028165
 3048 Fit      -0.028648
 3049 Fit      -0.028135
 3050 Fit      -0.026716
 3051 Fit      -0.024498
 3052 Fit      -0.021594
 3053 Fit      -0.018125
 3054 Fit      -0.014220
 3055 Fit      -0.010033
 3056 Fit      -0.023026
 3057 Fit      -0.025366
 3058 Fit      -0.026988
 3059 Fit      -0.027661
 3060 Fit      -0.027338
 3061 Fit      -0.026066
 3062 Fit      -0.023945
 3063 Fit      -0.021104
 3064 Fit      -0.017692
 3065 Fit      -0.013880
 3066 Fit      -0.009867
 3067 Fit      -0.005873
 3068 Fit       0.008713
 3069 Fit      -0.022513
 3070 Fit      -0.024219
 3071 Fit      -0.025698
 3072 Fit      -0.026473
 3073 Fit      -0.026331
 3074 Fit      -0.025236
 3075 Fit      -0.023263
 3076 Fit      -0.020548
 3077 Fit      -0.017276
 3078 Fit      -0.013661
 3079 Fit      -0.009948
 3080 Fit      -0.006384
 3081 Fit      -0.003180
 3082 Fit      -0.000465
 3083 Fit       0.001694
 3084 Fit       0.003186
 3085 Fit      -0.022211
 3086 Fit      -0.023300
 3087 Fit      -0.024514
 3088 Fit      -0.025183
 3089 Fit      -0.024897
 3090 Fit      -0.023538
 3091 Fit      -0.021197
 3092 Fit      -0.018104
 3093 Fit      -0.014574
 3094 Fit      -0.010966
 3095 Fit      -0.007632
 3096 Fit      -0.004846
 3097 Fit      -0.002794
 3098 Fit      -0.001636
 3099 Fit      -0.021917
 3100 Fit      -0.022968
 3101 Fit      -0.023635
 3102 Fit      -0.023402
 3103 Fit      -0.022024
 3104 Fit      -0.019596
 3105 Fit      -0.016465
 3106 Fit      -0.013117
 3107 Fit      -0.010055
 3108 Fit      -0.007687
 3109 Fit      -0.006294
 3110 Fit      -0.006030
 3111 Fit      -0.020808
 3112 Fit      -0.020813
 3113 Fit      -0.021772
 3114 Fit      -0.021542
 3115 Fit      -0.019804
 3116 Fit      -0.016897
 3117 Fit      -0.013704
 3118 Fit      -0.011202
 3119 Fit      -0.010096
 3120 Fit      -0.019013
 3121 Fit      -0.019108
 3122 Fit      -0.019397
 3123 Fit      -0.017043
 3124 Fit      -0.014273
 3125 Fit      -0.014027
 3126 Fit      -0.016573
 3127 Fit      -0.016912
 3128 Fit       0.004861
 3129 Fit       0.001513
 3130 Fit      -0.002927
 3131 Fit      -0.008535
 3132 Fit       0.009034
 3133 Fit       0.006899
 3134 Fit       0.004214
 3135 Fit       0.000655
 3136 Fit      -0.004073
 3137 Fit      -0.010202
 3138 Fit       0.010090
 3139 Fit       0.008283
 3140 Fit       0.006035
 3141 Fit       0.003062
 3142 Fit      -0.000931
 3143 Fit      -0.006273
 3144 Fit      -0.013346
 3145 Fit       0.010610
 3146 Fit       0.009135
 3147 Fit       0.007295
 3148 Fit       0.004864
 3149 Fit       0.001603
 3150 Fit      -0.002775
 3151 Fit      -0.008647
 3152 Fit       0.011971
 3153 Fit       0.010605
 3154 Fit       0.009370
 3155 Fit       0.007767
 3156 Fit       0.005594
 3157 Fit       0.002632
 3158 Fit      -0.001394
 3159 Fit      -0.006859
 3160 Fit      -0.014319
 3161 Fit       0.011689
 3162 Fit       0.010079
 3163 Fit       0.009106
 3164 Fit       0.007759
 3165 Fit       0.005871
 3166 Fit       0.003254
 3167 Fit      -0.000327
 3168 Fit      -0.005200
 3169 Fit      -0.011858
 3170 Fit       0.010853
 3171 Fit       0.009035
 3172 Fit       0.008306
 3173 Fit       0.007171
 3174 Fit       0.005489
 3175 Fit       0.003096
 3176 Fit      -0.000220
 3177 Fit      -0.004755
 3178 Fit      -0.010955
 3179 Fit       0.009499
 3180 Fit       0.007473
 3181 Fit       0.006957
 3182 Fit       0.005952
 3183 Fit       0.004323
 3184 Fit       0.001907
 3185 Fit      -0.001518
 3186 Fit      -0.006269
 3187 Fit      -0.012835
 3188 Fit       0.007620
 3189 Fit       0.005394
 3190 Fit       0.005095
 3191 Fit       0.004184
 3192 Fit       0.002532
 3193 Fit      -0.000031
 3194 Fit      -0.003748
 3195 Fit      -0.008977
 3196 Fit      -0.016265
 3197 Fit       0.002801
 3198 Fit       0.002736
 3199 Fit       0.001933
 3200 Fit       0.000279
 3201 Fit      -0.002392
 3202 Fit      -0.006320
 3203 Fit      -0.011853
 3204 Fit      -0.000141
 3205 Fit      -0.000980
 3206 Fit      -0.002923
 3207 Fit      -0.006154
 3208 Fit      -0.010938
 3209 Fit      -0.017614
 3210 Fit      -0.004427
 3211 Fit      -0.006743
 3212 Fit      -0.010591
 3213 Fit       0.006739
 3214 Fit       0.008689
 3215 Fit       0.005673
 3216 Fit       0.004375
 3217 Fit       0.007612
 3218 Fit       0.009631
 3219 Fit       0.010357
 3220 Fit       0.007850
 3221 Fit       0.001329
 3222 Fit       0.004548
 3223 Fit       0.008257
 3224 Fit       0.010941
 3225 Fit       0.012083
 3226 Fit       0.011813
 3227 Fit       0.011799
 3228 Fit       0.004613
 3229 Fit       0.008723
 3230 Fit       0.011684
 3231 Fit       0.013402
 3232 Fit       0.014081
 3233 Fit       0.013947
 3234 Fit       0.013162
 3235 Fit       0.013026
 3236 Fit       0.007738
 3237 Fit       0.011464
 3238 Fit       0.013809
 3239 Fit       0.015089
 3240 Fit       0.015590
 3241 Fit       0.015520
 3242 Fit       0.015019
 3243 Fit       0.014176
 3244 Fit       0.014010
 3245 Fit       0.009766
 3246 Fit       0.013183
 3247 Fit       0.015186
 3248 Fit       0.016237
 3249 Fit       0.016643
 3250 Fit       0.016597
 3251 Fit       0.016229
 3252 Fit       0.015633
 3253 Fit       0.014878
 3254 Fit       0.012188
 3255 Fit       0.014886
 3256 Fit       0.016360
 3257 Fit       0.017075
 3258 Fit       0.017298
 3259 Fit       0.017188
 3260 Fit       0.016848
 3261 Fit       0.016356
 3262 Fit       0.015784
 3263 Fit       0.015203
 3264 Fit       0.015614
 3265 Fit       0.016935
 3266 Fit       0.017494
 3267 Fit       0.017604
 3268 Fit       0.017430
 3269 Fit       0.017066
 3270 Fit       0.016581
 3271 Fit       0.016040
 3272 Fit       0.015519
 3273 Fit       0.015113
 3274 Fit       0.017837
 3275 Fit       0.017922
 3276 Fit       0.017717
 3277 Fit       0.017341
 3278 Fit       0.016854
 3279 Fit       0.016294
 3280 Fit       0.015705
 3281 Fit       0.015142
 3282 Fit       0.014687
 3283 Fit       0.019736
 3284 Fit       0.018817
 3285 Fit       0.017967
 3286 Fit       0.017176
 3287 Fit       0.016419
 3288 Fit       0.015677
 3289 Fit       0.014949
 3290 Fit       0.014257
 3291 Fit       0.013651
 3292 Fit       0.019924
 3293 Fit       0.017900
 3294 Fit       0.016396
 3295 Fit       0.015177
 3296 Fit       0.014117
 3297 Fit       0.013156
 3298 Fit       0.012284
 3299 Fit       0.018373
 3300 Fit       0.015658
 3301 Fit       0.013718
 3302 Fit       0.012186
 3303 Fit       0.010881
 3304 Fit       0.008418
 3305 Fit       0.009147
 3306 Fit       0.009065
 3307 Fit       0.008217
 3308 Fit       0.011524
 3309 Fit       0.012330
 3310 Fit       0.012623
 3311 Fit       0.012426
 3312 Fit       0.011728
 3313 Fit       0.010506
 3314 Fit       0.015095
 3315 Fit       0.015352
 3316 Fit       0.015396
 3317 Fit       0.015160
 3318 Fit       0.014605
 3319 Fit       0.013709
 3320 Fit       0.012458
 3321 Fit       0.017598
 3322 Fit       0.017590
 3323 Fit       0.017535
 3324 Fit       0.017312
 3325 Fit       0.016864
 3326 Fit       0.016170
 3327 Fit       0.015232
 3328 Fit       0.014067
 3329 Fit       0.019724
 3330 Fit       0.019277
 3331 Fit       0.019159
 3332 Fit       0.019078
 3333 Fit       0.018899
 3334 Fit       0.018565
 3335 Fit       0.018060
 3336 Fit       0.017396
 3337 Fit       0.016612
 3338 Fit       0.020376
 3339 Fit       0.020142
 3340 Fit       0.020087
 3341 Fit       0.020021
 3342 Fit       0.019859
 3343 Fit       0.019572
 3344 Fit       0.019170
 3345 Fit       0.018692
 3346 Fit       0.018211
 3347 Fit       0.020868
 3348 Fit       0.020488
 3349 Fit       0.020464
 3350 Fit       0.020510
 3351 Fit       0.020501
 3352 Fit       0.020389
 3353 Fit       0.020177
 3354 Fit       0.019907
 3355 Fit       0.019659
 3356 Fit       0.020047
 3357 Fit       0.020223
 3358 Fit       0.020426
 3359 Fit       0.020552
 3360 Fit       0.020569
 3361 Fit       0.020497
 3362 Fit       0.020402
 3363 Fit       0.020403
 3364 Fit       0.018871
 3365 Fit       0.019394
 3366 Fit       0.019825
 3367 Fit       0.020124
 3368 Fit       0.020292
 3369 Fit       0.020372
 3370 Fit       0.020457
 3371 Fit       0.020699
 3372 Fit       0.016736
 3373 Fit       0.017858
 3374 Fit       0.018667
 3375 Fit       0.019223
 3376 Fit       0.019581
 3377 Fit       0.019831
 3378 Fit       0.020117
 3379 Fit       0.013618
 3380 Fit       0.015627
 3381 Fit       0.016972
 3382 Fit       0.017867
 3383 Fit       0.018454
 3384 Fit       0.018885
 3385 Fit       0.010936
 3386 Fit       0.013663
 3387 Fit       0.015432
 3388 Fit       0.016548
 3389 Fit       0.017264
 3390 Fit       0.012747
 3391 Fit       0.013644
 3392 Fit       0.014272
 3393 Fit       0.015047
 3394 Fit       0.016008
 3395 Fit       0.017295
 3396 Fit       0.019214
 3397 Fit       0.016030
 3398 Fit       0.016360
 3399 Fit       0.016794
 3400 Fit       0.017304
 3401 Fit       0.017905
 3402 Fit       0.018672
 3403 Fit       0.019763
 3404 Fit       0.017990
 3405 Fit       0.017855
 3406 Fit       0.017936
 3407 Fit       0.018122
 3408 Fit       0.018341
 3409 Fit       0.018549
 3410 Fit       0.018719
 3411 Fit       0.018834
 3412 Fit       0.018869
 3413 Fit       0.019419
 3414 Fit       0.019160
 3415 Fit       0.019113
 3416 Fit       0.019152
 3417 Fit       0.019185
 3418 Fit       0.019139
 3419 Fit       0.018941
 3420 Fit       0.018501
 3421 Fit       0.017666
 3422 Fit       0.016134
 3423 Fit       0.020356
 3424 Fit       0.019946
 3425 Fit       0.019778
 3426 Fit       0.019710
 3427 Fit       0.019625
 3428 Fit       0.019425
 3429 Fit       0.019006
 3430 Fit       0.018237
 3431 Fit       0.016913
 3432 Fit       0.014669
 3433 Fit       0.020127
 3434 Fit       0.019928
 3435 Fit       0.019817
 3436 Fit       0.019679
 3437 Fit       0.019403
 3438 Fit       0.018875
 3439 Fit       0.017952
 3440 Fit       0.016424
 3441 Fit       0.013957
 3442 Fit       0.010000
 3443 Fit       0.019518
 3444 Fit       0.019450
 3445 Fit       0.019380
 3446 Fit       0.019203
 3447 Fit       0.018794
 3448 Fit       0.018005
 3449 Fit       0.016643
 3450 Fit       0.014428
 3451 Fit       0.010946
 3452 Fit       0.018061
 3453 Fit       0.018320
 3454 Fit       0.018403
 3455 Fit       0.018249
 3456 Fit       0.017735
 3457 Fit       0.016692
 3458 Fit       0.014888
 3459 Fit       0.012023
 3460 Fit       0.007755
 3461 Fit       0.016111
 3462 Fit       0.016733
 3463 Fit       0.016871
 3464 Fit       0.016463
 3465 Fit       0.015335
 3466 Fit       0.013241
 3467 Fit       0.009937
 3468 Fit       0.005403
 3469 Fit       0.004154
 3470 Fit       0.014445
 3471 Fit       0.014845
 3472 Fit       0.014079
 3473 Fit       0.011926
 3474 Fit       0.008338
 3475 Fit       0.006982
 3476 Fit       0.011103
 3477 Fit       0.012293
 3478 Fit       0.010568
 3479 Fit       0.009198
 3480 Fit      -0.003241
 3481 Fit      -0.003082
 3482 Fit      -0.000058
 3483 Fit       0.002266
 3484 Fit       0.003901
 3485 Fit       0.004602
 3486 Fit      -0.006504
 3487 Fit      -0.002484
 3488 Fit       0.000842
 3489 Fit       0.003640
 3490 Fit       0.006065
 3491 Fit       0.008235
 3492 Fit       0.010131
 3493 Fit      -0.006376
 3494 Fit      -0.002329
 3495 Fit       0.001093
 3496 Fit       0.004051
 3497 Fit       0.006712
 3498 Fit       0.009261
 3499 Fit       0.011916
 3500 Fit      -0.008227
 3501 Fit      -0.003753
 3502 Fit       0.000030
 3503 Fit       0.003289
 3504 Fit       0.006189
 3505 Fit       0.008918
 3506 Fit       0.011711
 3507 Fit       0.014899
 3508 Fit      -0.005724
 3509 Fit      -0.001641
 3510 Fit       0.001863
 3511 Fit       0.004943
 3512 Fit       0.007760
 3513 Fit       0.010504
 3514 Fit       0.013437
 3515 Fit       0.016953
 3516 Fit      -0.006697
 3517 Fit      -0.002483
 3518 Fit       0.001137
 3519 Fit       0.004309
 3520 Fit       0.007184
 3521 Fit       0.009934
 3522 Fit       0.012784
 3523 Fit       0.016063
 3524 Fit       0.020318
 3525 Fit      -0.005198
 3526 Fit      -0.001118
 3527 Fit       0.002404
 3528 Fit       0.005525
 3529 Fit       0.008410
 3530 Fit       0.011259
 3531 Fit       0.014350
 3532 Fit       0.018111
 3533 Fit      -0.007152
 3534 Fit      -0.002701
 3535 Fit       0.001107
 3536 Fit       0.004439
 3537 Fit       0.007468
 3538 Fit       0.010401
 3539 Fit       0.013505
 3540 Fit       0.017177
 3541 Fit      -0.004774
 3542 Fit      -0.000710
 3543 Fit       0.002806
 3544 Fit       0.005943
 3545 Fit       0.008891
 3546 Fit       0.011885
 3547 Fit       0.015226
 3548 Fit      -0.004332
 3549 Fit      -0.000237
 3550 Fit       0.003288
 3551 Fit       0.006438
 3552 Fit       0.009426
 3553 Fit       0.012480
 3554 Fit       0.015775
 3555 Fit      -0.004117
 3556 Fit      -0.000101
 3557 Fit       0.003302
 3558 Fit       0.006267
 3559 Fit       0.008919
 3560 Fit       0.011195
 3561 Fit      -0.002690
 3562 Fit       0.000887
 3563 Fit       0.003630
 3564 Fit       0.005432
 -----------------------------------------------------------------
 Leave Link  602 at Tue Sep 30 17:18:24 2025, MaxMem=  4294967296 cpu:               2.1 elap:               0.1
 (Enter /software/sse/easybuild/prefix/software/Gaussian/16.C.01-avx2-nsc1/g16/l9999.exe)

 Test job not archived.
 1\1\NSC-N75\FOpt\RMP2-FC\Aug-CC-pVTZ\C1H5N3\X_DAVVA\30-Sep-2025\0\\#P 
 MP2/aug-cc-pvtz Opt=tight density=MP2 Pop=(MK,Hirshfeld) iop(6/33=2) i
 op(6/42=6) maxdisk=128GB\\guanidine\\0,1\C,-0.0190705827,0.1183301387,
 0.0022303922\N,-0.9429333821,-0.9218142132,0.0893344522\N,1.2855650106
 ,-0.3486061743,-0.0924057056\N,-0.2529035137,1.377997289,0.0115566172\
 H,1.9515833307,0.4004290055,0.0233951334\H,1.485615458,-1.1406273249,0
 .4994183184\H,-1.8987314936,-0.6335416362,-0.0463402117\H,-0.706136413
 3,-1.7304918819,-0.4658838506\H,-1.2522084138,1.5604947972,-0.02907514
 54\\Version=ES64L-G16RevC.01\State=1-A\HF=-204.2144077\MP2=-205.018662
 6\RMSD=8.770e-09\RMSF=8.578e-07\Dipole=-0.3347164,-1.0217921,-0.015468
 1\Quadrupole=4.4042386,-1.9624827,-2.441756,-0.8937216,2.205524,0.3234
 424\PG=C01 [X(C1H5N3)]\\@


 IF YOU GIVE EVERYONE A PIECE OF YOUR MIND,
 PRETTY SOON IT WILL BE ALL GONE.
 Job cpu time:       0 days  3 hours 48 minutes 33.8 seconds.
 Elapsed time:       0 days  0 hours 19 minutes 28.7 seconds.
 File lengths (MBytes):  RWF=   6592 Int=      0 D2E=      0 Chk=     16 Scr=      1
 Normal termination of Gaussian 16 at Tue Sep 30 17:18:24 2025.
