 Entering Gaussian System, Link 0=/software/sse/easybuild/prefix/software/Gaussian/16.C.01-avx2-nsc1/g16/g16.orig
 Input=bromide.wrap
 Output=bromide.log
 Initial command:
 /software/sse/easybuild/prefix/software/Gaussian/16.C.01-avx2-nsc1/g16/l1.exe "/scratch/local/Gau-832669.inp" -scrdir="/scratch/local/"
 Entering Link 1 = /software/sse/easybuild/prefix/software/Gaussian/16.C.01-avx2-nsc1/g16/l1.exe PID=    832670.
  
 Copyright (c) 1988-2019, Gaussian, Inc.  All Rights Reserved.
  
 This is part of the Gaussian(R) 16 program.  It is based on
 the Gaussian(R) 09 system (copyright 2009, Gaussian, Inc.),
 the Gaussian(R) 03 system (copyright 2003, Gaussian, Inc.),
 the Gaussian(R) 98 system (copyright 1998, Gaussian, Inc.),
 the Gaussian(R) 94 system (copyright 1995, Gaussian, Inc.),
 the Gaussian 92(TM) system (copyright 1992, Gaussian, Inc.),
 the Gaussian 90(TM) system (copyright 1990, Gaussian, Inc.),
 the Gaussian 88(TM) system (copyright 1988, Gaussian, Inc.),
 the Gaussian 86(TM) system (copyright 1986, Carnegie Mellon
 University), and the Gaussian 82(TM) system (copyright 1983,
 Carnegie Mellon University). Gaussian is a federally registered
 trademark of Gaussian, Inc.
  
 This software contains proprietary and confidential information,
 including trade secrets, belonging to Gaussian, Inc.
  
 This software is provided under written license and may be
 used, copied, transmitted, or stored only in accord with that
 written license.
  
 The following legend is applicable only to US Government
 contracts under FAR:
  
                    RESTRICTED RIGHTS LEGEND
  
 Use, reproduction and disclosure by the US Government is
 subject to restrictions as set forth in subparagraphs (a)
 and (c) of the Commercial Computer Software - Restricted
 Rights clause in FAR 52.227-19.
  
 Gaussian, Inc.
 340 Quinnipiac St., Bldg. 40, Wallingford CT 06492
  
  
 ---------------------------------------------------------------
 Warning -- This program may not be used in any manner that
 competes with the business of Gaussian, Inc. or will provide
 assistance to any competitor of Gaussian, Inc.  The licensee
 of this program is prohibited from giving any competitor of
 Gaussian, Inc. access to this program.  By using this program,
 the user acknowledges that Gaussian, Inc. is engaged in the
 business of creating and licensing software in the field of
 computational chemistry and represents and warrants to the
 licensee that it is not a competitor of Gaussian, Inc. and that
 it will not use this program in any manner prohibited above.
 ---------------------------------------------------------------
  

 Cite this work as:
 Gaussian 16, Revision C.01,
 M. J. Frisch, G. W. Trucks, H. B. Schlegel, G. E. Scuseria, 
 M. A. Robb, J. R. Cheeseman, G. Scalmani, V. Barone, 
 G. A. Petersson, H. Nakatsuji, X. Li, M. Caricato, A. V. Marenich, 
 J. Bloino, B. G. Janesko, R. Gomperts, B. Mennucci, H. P. Hratchian, 
 J. V. Ortiz, A. F. Izmaylov, J. L. Sonnenberg, D. Williams-Young, 
 F. Ding, F. Lipparini, F. Egidi, J. Goings, B. Peng, A. Petrone, 
 T. Henderson, D. Ranasinghe, V. G. Zakrzewski, J. Gao, N. Rega, 
 G. Zheng, W. Liang, M. Hada, M. Ehara, K. Toyota, R. Fukuda, 
 J. Hasegawa, M. Ishida, T. Nakajima, Y. Honda, O. Kitao, H. Nakai, 
 T. Vreven, K. Throssell, J. A. Montgomery, Jr., J. E. Peralta, 
 F. Ogliaro, M. J. Bearpark, J. J. Heyd, E. N. Brothers, K. N. Kudin, 
 V. N. Staroverov, T. A. Keith, R. Kobayashi, J. Normand, 
 K. Raghavachari, A. P. Rendell, J. C. Burant, S. S. Iyengar, 
 J. Tomasi, M. Cossi, J. M. Millam, M. Klene, C. Adamo, R. Cammi, 
 J. W. Ochterski, R. L. Martin, K. Morokuma, O. Farkas, 
 J. B. Foresman, and D. J. Fox, Gaussian, Inc., Wallingford CT, 2019.
 
 ******************************************
 Gaussian 16:  ES64L-G16RevC.01  3-Jul-2019
                30-Sep-2025 
 ******************************************
 %mem=12000MB
 %nprocshared=16
 Will use up to   16 processors via shared memory.
 %mem=32Gb
 %chk=bromide.chk
 ----------------------------------------------------------------------
 #P MP2/aug-cc-pvtz Opt=tight density=MP2 Pop=(MK,Hirshfeld) iop(6/33=2
 ) iop(6/42=6) maxdisk=128GB
 ----------------------------------------------------------------------
 1/7=10,18=20,19=15,38=1/1,3;
 2/9=110,12=2,17=6,18=5,40=1/2;
 3/5=16,6=1,7=10,11=9,25=1,30=1,71=1/1,2,3;
 4//1;
 5/5=2,38=5/2;
 8/6=4,10=1/1;
 9/15=2,16=-3/6;
 10/5=1/2;
 6/7=2,8=2,9=2,10=2,15=8,20=1,22=2,33=2,42=6,79=1/1,2;
 7/12=2/1,2,3,16;
 1/7=10,18=20,19=15/3(2);
 2/9=110/2;
 99//99;
 2/9=110/2;
 3/5=16,6=1,7=10,11=9,25=1,30=1,71=1/1,2,3;
 4/5=5,16=3,69=1/1;
 5/5=2,38=5/2;
 8/6=4,10=1/1;
 9/15=2,16=-3/6;
 10/5=1/2;
 7/12=2/1,2,3,16;
 1/7=10,18=20,19=15/3(-8);
 2/9=110/2;
 6/7=2,8=2,9=2,10=2,15=8,20=1,22=2,33=2,42=6,79=1/1,2;
 99/9=10/99;
 Leave Link    1 at Tue Sep 30 16:58:49 2025, MaxMem=  4294967296 cpu:               0.9 elap:               0.1
 (Enter /software/sse/easybuild/prefix/software/Gaussian/16.C.01-avx2-nsc1/g16/l101.exe)
 -------
 bromide
 -------
 Symbolic Z-matrix:
 Charge = -1 Multiplicity = 1
 Br                    0.        0.        0. 
 
 ITRead=  0
 MicOpt= -1
 NAtoms=      1 NQM=        1 NQMF=       0 NMMI=      0 NMMIF=      0
                NMic=       0 NMicF=      0.
                    Isotopes and Nuclear Properties:
 (Nuclear quadrupole moments (NQMom) in fm**2, nuclear magnetic moments (NMagM)
  in nuclear magnetons)

  Atom         1
 IAtWgt=          79
 AtmWgt=  78.9183361
 NucSpn=           3
 AtZEff=  -0.0000000
 NQMom=   31.3000000
 NMagM=    2.1063990
 AtZNuc=  35.0000000
 Leave Link  101 at Tue Sep 30 16:58:50 2025, MaxMem=  4294967296 cpu:               5.0 elap:               0.3
 (Enter /software/sse/easybuild/prefix/software/Gaussian/16.C.01-avx2-nsc1/g16/l103.exe)

 GradGradGradGradGradGradGradGradGradGradGradGradGradGradGradGradGradGrad
 Berny optimization.
 Initialization pass.
 No Z-matrix variables, so optimization will use Cartesian coordinates.
 Trust Radius=3.00D-01 FncErr=1.00D-07 GrdErr=1.00D-07 EigMax=2.50D+02 EigMin=1.00D-04
 Number of steps in this run=     20 maximum allowed number of steps=    100.
 GradGradGradGradGradGradGradGradGradGradGradGradGradGradGradGradGradGrad

 Leave Link  103 at Tue Sep 30 16:58:50 2025, MaxMem=  4294967296 cpu:               0.3 elap:               0.0
 (Enter /software/sse/easybuild/prefix/software/Gaussian/16.C.01-avx2-nsc1/g16/l202.exe)
                          Input orientation:                          
 ---------------------------------------------------------------------
 Center     Atomic      Atomic             Coordinates (Angstroms)
 Number     Number       Type             X           Y           Z
 ---------------------------------------------------------------------
      1         35           0        0.000000    0.000000    0.000000
 ---------------------------------------------------------------------
 Stoichiometry    Br(1-)
 Framework group  OH[O(Br)]
 Deg. of freedom     0
 Full point group                 OH      NOp  48
 Largest Abelian subgroup         D2H     NOp   8
 Largest concise Abelian subgroup C1      NOp   1
                         Standard orientation:                         
 ---------------------------------------------------------------------
 Center     Atomic      Atomic             Coordinates (Angstroms)
 Number     Number       Type             X           Y           Z
 ---------------------------------------------------------------------
      1         35           0        0.000000    0.000000    0.000000
 ---------------------------------------------------------------------
 Leave Link  202 at Tue Sep 30 16:58:50 2025, MaxMem=  4294967296 cpu:               0.3 elap:               0.0
 (Enter /software/sse/easybuild/prefix/software/Gaussian/16.C.01-avx2-nsc1/g16/l301.exe)
 Standard basis: Aug-CC-pVTZ (5D, 7F)
 Ernie: Thresh=  0.10000D-02 Tol=  0.10000D-05 Strict=F.
 Ernie:  32 primitive shells out of 123 were deleted.
 There are    19 symmetry adapted cartesian basis functions of AG  symmetry.
 There are     4 symmetry adapted cartesian basis functions of B1G symmetry.
 There are     4 symmetry adapted cartesian basis functions of B2G symmetry.
 There are     4 symmetry adapted cartesian basis functions of B3G symmetry.
 There are     2 symmetry adapted cartesian basis functions of AU  symmetry.
 There are    12 symmetry adapted cartesian basis functions of B1U symmetry.
 There are    12 symmetry adapted cartesian basis functions of B2U symmetry.
 There are    12 symmetry adapted cartesian basis functions of B3U symmetry.
 There are    15 symmetry adapted basis functions of AG  symmetry.
 There are     4 symmetry adapted basis functions of B1G symmetry.
 There are     4 symmetry adapted basis functions of B2G symmetry.
 There are     4 symmetry adapted basis functions of B3G symmetry.
 There are     2 symmetry adapted basis functions of AU  symmetry.
 There are    10 symmetry adapted basis functions of B1U symmetry.
 There are    10 symmetry adapted basis functions of B2U symmetry.
 There are    10 symmetry adapted basis functions of B3U symmetry.
    59 basis functions,   217 primitive gaussians,    69 cartesian basis functions
    18 alpha electrons       18 beta electrons
       nuclear repulsion energy         0.0000000000 Hartrees.
 IExCor=    0 DFT=F Ex=HF Corr=None ExCW=0 ScaHFX=  1.000000
 ScaDFX=  1.000000  1.000000  1.000000  1.000000 ScalE2=  1.000000  1.000000
 IRadAn=      5 IRanWt=     -1 IRanGd=            0 ICorTp=0 IEmpDi=  4
 NAtoms=    1 NActive=    1 NUniq=    1 SFac= 1.00D+00 NAtFMM=   60 NAOKFM=F Big=F
 Integral buffers will be    131072 words long.
 Raffenetti 1 integral format.
 Two-electron integral symmetry is turned on.
 Leave Link  301 at Tue Sep 30 16:58:51 2025, MaxMem=  4294967296 cpu:               1.1 elap:               0.2
 (Enter /software/sse/easybuild/prefix/software/Gaussian/16.C.01-avx2-nsc1/g16/l302.exe)
 NPDir=0 NMtPBC=     1 NCelOv=     1 NCel=       1 NClECP=     1 NCelD=      1
         NCelK=      1 NCelE2=     1 NClLst=     1 CellRange=     0.0.
 One-electron integrals computed using PRISM.
 One-electron integral symmetry used in STVInt
 NBasis=    59 RedAO= T EigKep=  1.14D-02  NBF=    15     4     4     4     2    10    10    10
 NBsUse=    59 1.00D-06 EigRej= -1.00D+00 NBFU=    15     4     4     4     2    10    10    10
 Leave Link  302 at Tue Sep 30 16:58:51 2025, MaxMem=  4294967296 cpu:               2.0 elap:               0.1
 (Enter /software/sse/easybuild/prefix/software/Gaussian/16.C.01-avx2-nsc1/g16/l303.exe)
 DipDrv:  MaxL=1.
 Leave Link  303 at Tue Sep 30 16:58:52 2025, MaxMem=  4294967296 cpu:               0.6 elap:               0.1
 (Enter /software/sse/easybuild/prefix/software/Gaussian/16.C.01-avx2-nsc1/g16/l401.exe)
 ExpMin= 3.51D-02 ExpMax= 1.06D+07 ExpMxC= 1.21D+04 IAcc=3 IRadAn=         5 AccDes= 0.00D+00
 Harris functional with IExCor=  205 and IRadAn=       5 diagonalized for initial guess.
 HarFok:  IExCor=  205 AccDes= 0.00D+00 IRadAn=         5 IDoV= 1 UseB2=F ITyADJ=14
 ICtDFT=  3500011 ScaDFX=  1.000000  1.000000  1.000000  1.000000
 FoFCou: FMM=F IPFlag=           0 FMFlag=      100000 FMFlg1=           0
         NFxFlg=           0 DoJE=T BraDBF=F KetDBF=T FulRan=T
         wScrn=  0.000000 ICntrl=       500 IOpCl=  0 I1Cent=   200000004 NGrid=           0
         NMat0=    1 NMatS0=      1 NMatT0=    0 NMatD0=    1 NMtDS0=    0 NMtDT0=    0
 Petite list used in FoFCou.
 Harris En= -2571.86331992788    
 JPrj=0 DoOrth=F DoCkMO=F.
 Initial guess orbital symmetries:
       Occupied  (A1G) (A1G) (T1U) (T1U) (T1U) (A1G) (T1U) (T1U)
                 (T1U) (T2G) (T2G) (T2G) (EG) (EG) (A1G) (T1U)
                 (T1U) (T1U)
       Virtual   (A1G) (T1U) (T1U) (T1U) (T2G) (T2G) (T2G) (EG)
                 (EG) (T1U) (T1U) (T1U) (A1G) (T2G) (T2G) (T2G)
                 (EG) (EG) (T2U) (T2U) (T2U) (A2U) (T1U) (T1U)
                 (T1U) (T1U) (T1U) (T1U) (T2G) (T2G) (T2G) (EG)
                 (EG) (T2U) (T2U) (T2U) (A2U) (T1U) (T1U) (T1U)
                 (A1G)
 The electronic state of the initial guess is 1-A1G.
 Leave Link  401 at Tue Sep 30 16:58:53 2025, MaxMem=  4294967296 cpu:               2.8 elap:               0.2
 (Enter /software/sse/easybuild/prefix/software/Gaussian/16.C.01-avx2-nsc1/g16/l502.exe)
 Keep R1 ints in memory in symmetry-blocked form, NReq=14303242.
 FoFCou: FMM=F IPFlag=           0 FMFlag=           0 FMFlg1=           0
         NFxFlg=           0 DoJE=F BraDBF=F KetDBF=F FulRan=T
         wScrn=  0.000000 ICntrl=       600 IOpCl=  0 I1Cent=           0 NGrid=           0
         NMat0=    1 NMatS0=   1770 NMatT0=    0 NMatD0=    1 NMtDS0=    0 NMtDT0=    0
 Petite list used in FoFCou.
 Closed shell SCF:
 Using DIIS extrapolation, IDIIS=  1040.
 NGot=  4294967296 LenX=  4294739243 LenY=  4294734041
 Requested convergence on RMS density matrix=1.00D-08 within 128 cycles.
 Requested convergence on MAX density matrix=1.00D-06.
 Requested convergence on             energy=1.00D-06.
 No special actions if energy rises.

 Cycle   1  Pass 1  IDiag  1:
 E= -2572.44267964237    
 DIIS: error= 1.11D-01 at cycle   1 NSaved=   1.
 NSaved= 1 IEnMin= 1 EnMin= -2572.44267964237     IErMin= 1 ErrMin= 1.11D-01
 ErrMax= 1.11D-01  0.00D+00 EMaxC= 1.00D-01 BMatC= 3.18D-01 BMatP= 3.18D-01
 IDIUse=3 WtCom= 0.00D+00 WtEn= 1.00D+00
 Coeff-Com:  0.100D+01
 Coeff-En:   0.100D+01
 Coeff:      0.100D+01
 Gap=     0.345 Goal=   None    Shift=    0.000
 GapD=    0.345 DampG=1.000 DampE=0.250 DampFc=0.2500 IDamp=-1.
 Damping current iteration by 2.50D-01
 RMSDP=6.44D-03 MaxDP=8.50D-02              OVMax= 1.19D-01

 Cycle   2  Pass 1  IDiag  1:
 E= -2572.46637922889     Delta-E=       -0.023699586520 Rises=F Damp=T
 DIIS: error= 8.19D-02 at cycle   2 NSaved=   2.
 NSaved= 2 IEnMin= 2 EnMin= -2572.46637922889     IErMin= 2 ErrMin= 8.19D-02
 ErrMax= 8.19D-02  0.00D+00 EMaxC= 1.00D-01 BMatC= 1.70D-01 BMatP= 3.18D-01
 IDIUse=3 WtCom= 1.81D-01 WtEn= 8.19D-01
 Coeff-Com: -0.272D+01 0.372D+01
 Coeff-En:   0.000D+00 0.100D+01
 Coeff:     -0.492D+00 0.149D+01
 Gap=     0.344 Goal=   None    Shift=    0.000
 RMSDP=4.50D-03 MaxDP=5.96D-02 DE=-2.37D-02 OVMax= 4.13D-03

 Cycle   3  Pass 1  IDiag  1:
 E= -2572.53319013300     Delta-E=       -0.066810904114 Rises=F Damp=F
 DIIS: error= 3.76D-03 at cycle   3 NSaved=   3.
 NSaved= 3 IEnMin= 3 EnMin= -2572.53319013300     IErMin= 3 ErrMin= 3.76D-03
 ErrMax= 3.76D-03  0.00D+00 EMaxC= 1.00D-01 BMatC= 1.02D-03 BMatP= 1.70D-01
 IDIUse=3 WtCom= 9.62D-01 WtEn= 3.76D-02
 Coeff-Com:  0.297D+01-0.394D+01 0.197D+01
 Coeff-En:   0.000D+00 0.000D+00 0.100D+01
 Coeff:      0.286D+01-0.379D+01 0.193D+01
 Gap=     0.390 Goal=   None    Shift=    0.000
 RMSDP=7.76D-04 MaxDP=1.16D-02 DE=-6.68D-02 OVMax= 6.18D-03

 Cycle   4  Pass 1  IDiag  1:
 E= -2572.53367103685     Delta-E=       -0.000480903852 Rises=F Damp=F
 DIIS: error= 2.65D-04 at cycle   4 NSaved=   4.
 NSaved= 4 IEnMin= 4 EnMin= -2572.53367103685     IErMin= 4 ErrMin= 2.65D-04
 ErrMax= 2.65D-04  0.00D+00 EMaxC= 1.00D-01 BMatC= 2.20D-06 BMatP= 1.02D-03
 IDIUse=3 WtCom= 9.97D-01 WtEn= 2.65D-03
 Coeff-Com:  0.182D+00-0.245D+00 0.801D-01 0.983D+00
 Coeff-En:   0.000D+00 0.000D+00 0.000D+00 0.100D+01
 Coeff:      0.181D+00-0.244D+00 0.799D-01 0.983D+00
 Gap=     0.391 Goal=   None    Shift=    0.000
 RMSDP=8.79D-05 MaxDP=1.19D-03 DE=-4.81D-04 OVMax= 1.21D-03

 Cycle   5  Pass 1  IDiag  1:
 E= -2572.53367709859     Delta-E=       -0.000006061742 Rises=F Damp=F
 DIIS: error= 6.44D-05 at cycle   5 NSaved=   5.
 NSaved= 5 IEnMin= 5 EnMin= -2572.53367709859     IErMin= 5 ErrMin= 6.44D-05
 ErrMax= 6.44D-05  0.00D+00 EMaxC= 1.00D-01 BMatC= 1.64D-07 BMatP= 2.20D-06
 IDIUse=1 WtCom= 1.00D+00 WtEn= 0.00D+00
 Coeff-Com:  0.531D-01-0.708D-01 0.199D-01-0.102D-01 0.101D+01
 Coeff:      0.531D-01-0.708D-01 0.199D-01-0.102D-01 0.101D+01
 Gap=     0.391 Goal=   None    Shift=    0.000
 RMSDP=2.70D-05 MaxDP=3.50D-04 DE=-6.06D-06 OVMax= 3.94D-04

 Cycle   6  Pass 1  IDiag  1:
 E= -2572.53367759820     Delta-E=       -0.000000499609 Rises=F Damp=F
 DIIS: error= 2.73D-05 at cycle   6 NSaved=   6.
 NSaved= 6 IEnMin= 6 EnMin= -2572.53367759820     IErMin= 6 ErrMin= 2.73D-05
 ErrMax= 2.73D-05  0.00D+00 EMaxC= 1.00D-01 BMatC= 2.62D-08 BMatP= 1.64D-07
 IDIUse=1 WtCom= 1.00D+00 WtEn= 0.00D+00
 Coeff-Com: -0.342D-02 0.471D-02-0.108D-02-0.117D+00 0.120D+00 0.997D+00
 Coeff:     -0.342D-02 0.471D-02-0.108D-02-0.117D+00 0.120D+00 0.997D+00
 Gap=     0.391 Goal=   None    Shift=    0.000
 RMSDP=1.05D-05 MaxDP=1.57D-04 DE=-5.00D-07 OVMax= 1.36D-04

 Cycle   7  Pass 1  IDiag  1:
 E= -2572.53367764967     Delta-E=       -0.000000051463 Rises=F Damp=F
 DIIS: error= 1.84D-06 at cycle   7 NSaved=   7.
 NSaved= 7 IEnMin= 7 EnMin= -2572.53367764967     IErMin= 7 ErrMin= 1.84D-06
 ErrMax= 1.84D-06  0.00D+00 EMaxC= 1.00D-01 BMatC= 3.58D-10 BMatP= 2.62D-08
 IDIUse=1 WtCom= 1.00D+00 WtEn= 0.00D+00
 Coeff-Com:  0.814D-03-0.110D-02 0.779D-03 0.174D-01-0.556D-01-0.354D-01
 Coeff-Com:  0.107D+01
 Coeff:      0.814D-03-0.110D-02 0.779D-03 0.174D-01-0.556D-01-0.354D-01
 Coeff:      0.107D+01
 Gap=     0.391 Goal=   None    Shift=    0.000
 RMSDP=3.98D-07 MaxDP=5.59D-06 DE=-5.15D-08 OVMax= 8.06D-06

 Cycle   8  Pass 1  IDiag  1:
 E= -2572.53367765007     Delta-E=       -0.000000000404 Rises=F Damp=F
 DIIS: error= 4.39D-07 at cycle   8 NSaved=   8.
 NSaved= 8 IEnMin= 8 EnMin= -2572.53367765007     IErMin= 8 ErrMin= 4.39D-07
 ErrMax= 4.39D-07  0.00D+00 EMaxC= 1.00D-01 BMatC= 6.10D-12 BMatP= 3.58D-10
 IDIUse=1 WtCom= 1.00D+00 WtEn= 0.00D+00
 Coeff-Com:  0.806D-05-0.100D-04-0.101D-03-0.191D-02 0.115D-01-0.185D-01
 Coeff-Com: -0.186D+00 0.120D+01
 Coeff:      0.806D-05-0.100D-04-0.101D-03-0.191D-02 0.115D-01-0.185D-01
 Coeff:     -0.186D+00 0.120D+01
 Gap=     0.391 Goal=   None    Shift=    0.000
 RMSDP=1.11D-07 MaxDP=1.83D-06 DE=-4.04D-10 OVMax= 1.42D-06

 Cycle   9  Pass 1  IDiag  1:
 E= -2572.53367765008     Delta-E=       -0.000000000008 Rises=F Damp=F
 DIIS: error= 2.90D-08 at cycle   9 NSaved=   9.
 NSaved= 9 IEnMin= 9 EnMin= -2572.53367765008     IErMin= 9 ErrMin= 2.90D-08
 ErrMax= 2.90D-08  0.00D+00 EMaxC= 1.00D-01 BMatC= 8.74D-15 BMatP= 6.10D-12
 IDIUse=1 WtCom= 1.00D+00 WtEn= 0.00D+00
 Coeff-Com:  0.289D-05-0.391D-05 0.974D-05 0.174D-03-0.931D-03 0.175D-02
 Coeff-Com:  0.160D-01-0.143D+00 0.113D+01
 Coeff:      0.289D-05-0.391D-05 0.974D-05 0.174D-03-0.931D-03 0.175D-02
 Coeff:      0.160D-01-0.143D+00 0.113D+01
 Gap=     0.391 Goal=   None    Shift=    0.000
 RMSDP=3.10D-09 MaxDP=7.21D-08 DE=-8.19D-12 OVMax= 2.91D-08

 SCF Done:  E(RHF) =  -2572.53367765     A.U. after    9 cycles
            NFock=  9  Conv=0.31D-08     -V/T= 2.0000
 KE= 2.572554990462D+03 PE=-6.166238698181D+03 EE= 1.021150030069D+03
 Leave Link  502 at Tue Sep 30 16:58:54 2025, MaxMem=  4294967296 cpu:              12.1 elap:               0.8
 (Enter /software/sse/easybuild/prefix/software/Gaussian/16.C.01-avx2-nsc1/g16/l801.exe)
 ExpMin= 3.51D-02 ExpMax= 1.06D+07 ExpMxC= 1.21D+04 IAcc=3 IRadAn=         5 AccDes= 0.00D+00
 HarFok:  IExCor=  205 AccDes= 0.00D+00 IRadAn=         5 IDoV=-2 UseB2=F ITyADJ=14
 ICtDFT= 12500011 ScaDFX=  1.000000  1.000000  1.000000  1.000000
 Largest valence mixing into a core orbital is  1.13D-04
 Largest core mixing into a valence orbital is  4.95D-05
 Range of M.O.s used for correlation:    10    59
 NBasis=    59 NAE=    18 NBE=    18 NFC=     9 NFV=     0
 NROrb=     50 NOA=     9 NOB=     9 NVA=    41 NVB=    41
 Leave Link  801 at Tue Sep 30 16:58:54 2025, MaxMem=  4294967296 cpu:               0.8 elap:               0.1
 (Enter /software/sse/easybuild/prefix/software/Gaussian/16.C.01-avx2-nsc1/g16/l906.exe)
 Frozen-core derivative calculation, NFC=   9 NFV=   0.
 FulOut=F Deriv=T AODrv=T NAtomX=     1
   MMem=        1505  MDisk=           9 MDiskD=           9
  W3Min=       73278 MinDsk=      177443 NBas6D=          69
 NBas2D=        2583    NTT=        2415    LW2=     9911920
    MDV=  4294838486 MDiskM=      311075 NBas2p=        2583
 Fully direct method using O(ONN) memory.
 IMap=   1   2   3   4   5   6   7   8   9  10  11  12  13  14  15  16  17  18
 JobTyp=1 Pass  1:  I=  10 to  18 NPSUse= 16 ParTrn=T ParDer=T DoDerP=T.
 Spin components of T(2) and E(2):
     alpha-alpha T2 =       0.1181703928D-01 E2=     -0.3542457982D-01
     alpha-beta  T2 =       0.6047249172D-01 E2=     -0.1703044806D+00
     beta-beta   T2 =       0.1181703928D-01 E2=     -0.3542457982D-01
 The integrals were generated   1 times.
 ANorm=    0.1041204384D+01
 E2 =    -0.2411536402D+00 EUMP2 =    -0.25727748312903D+04
 Leave Link  906 at Tue Sep 30 16:58:55 2025, MaxMem=  4294967296 cpu:              12.0 elap:               0.8
 (Enter /software/sse/easybuild/prefix/software/Gaussian/16.C.01-avx2-nsc1/g16/l1002.exe)
 Minotr:  Closed shell wavefunction.
          Computing MP2/KS-MP2 derivatives.
          Using Z-Vector for PSCF gradient.
          Skipping F1 and S1 gradient terms here.
          IDoAtm=1
          Frozen-core window.
          Direct CPHF calculation.
          Differentiating once with respect to electric field.
                with respect to dipole field.
          Differentiating once with respect to nuclear coordinates.
          Using symmetry in CPHF.
          Requested convergence is 1.0D-10 RMS, and 1.0D-09 maximum.
          NewPWx=F KeepS1=T KeepF1=T KeepIn=T MapXYZ=F SortEE=F KeepMc=T.
 Keep R1 ints in memory in symmetry-blocked form, NReq=14303745.
 FoFCou: FMM=F IPFlag=           0 FMFlag=           0 FMFlg1=           0
         NFxFlg=           0 DoJE=F BraDBF=F KetDBF=F FulRan=T
         wScrn=  0.000000 ICntrl=       600 IOpCl=  0 I1Cent=           0 NGrid=           0
         NMat0=    1 NMatS0=   1770 NMatT0=    0 NMatD0=    1 NMtDS0=    0 NMtDT0=    0
 Petite list used in FoFCou.
          MDV=    4294967296 using IRadAn=       5.
          Solving linear equations separately, MaxMat=       0.
          There are     1 degrees of freedom in the 1st order CPHF.  IDoFFX=0 NUNeed=     1.
 LinEq1:  Iter=  0 NonCon=     1 RMS=2.41D-03 Max=2.72D-02 NDo=     1
 AX will form     1 AO Fock derivatives at one time.
 LinEq1:  Iter=  1 NonCon=     1 RMS=5.08D-04 Max=4.25D-03 NDo=     1
 LinEq1:  Iter=  2 NonCon=     1 RMS=2.66D-04 Max=2.96D-03 NDo=     1
 LinEq1:  Iter=  3 NonCon=     1 RMS=3.37D-05 Max=4.03D-04 NDo=     1
 LinEq1:  Iter=  4 NonCon=     1 RMS=2.35D-06 Max=4.01D-05 NDo=     1
 LinEq1:  Iter=  5 NonCon=     1 RMS=1.14D-07 Max=1.66D-06 NDo=     1
 LinEq1:  Iter=  6 NonCon=     1 RMS=5.95D-09 Max=1.02D-07 NDo=     1
 LinEq1:  Iter=  7 NonCon=     1 RMS=2.32D-10 Max=2.75D-09 NDo=     1
 LinEq1:  Iter=  8 NonCon=     0 RMS=6.33D-12 Max=9.23D-11 NDo=     1
 Linear equations converged to 1.000D-10 1.000D-09 after     8 iterations.
 End of Minotr F.D. properties file   721 does not exist.
 End of Minotr F.D. properties file   722 does not exist.
 End of Minotr F.D. properties file   788 does not exist.
 Leave Link 1002 at Tue Sep 30 16:58:56 2025, MaxMem=  4294967296 cpu:              15.4 elap:               1.0
 (Enter /software/sse/easybuild/prefix/software/Gaussian/16.C.01-avx2-nsc1/g16/l601.exe)
 Copying SCF densities to generalized density rwf, IOpCl= 0 IROHF=0.
 SCF density gives NOpUse= 48 NOpAll= 48.

 **********************************************************************

            Population analysis using the MP2 Density.

 **********************************************************************

 Orbital symmetries:
 BldTbl:  Degeneracy threshold= 1.00D-02
       Occupied  (A1G) (A1G) (T1U) (T1U) (T1U) (A1G) (T1U) (T1U)
                 (T1U) (EG) (EG) (T2G) (T2G) (T2G) (A1G) (T1U)
                 (T1U) (T1U)
       Virtual   (T1U) (T1U) (T1U) (A1G) (EG) (EG) (T2G) (T2G)
                 (T2G) (T1U) (T1U) (T1U) (A1G) (EG) (EG) (T2G)
                 (T2G) (T2G) (?A) (?A) (A2U) (?A) (?A) (?A) (?A)
                 (T1U) (T1U) (T1U) (EG) (EG) (T2G) (T2G) (T2G)
                 (?A) (?A) (?A) (?A) (?A) (A2U) (?A) (A1G)
 The electronic state is 1-A1G.
 Alpha  occ. eigenvalues -- -489.72028 -64.86040 -58.21486 -58.21486 -58.21486
 Alpha  occ. eigenvalues --   -9.53283  -7.14017  -7.14017  -7.14017  -2.88184
 Alpha  occ. eigenvalues --   -2.88184  -2.88184  -2.88184  -2.88184  -0.68600
 Alpha  occ. eigenvalues --   -0.13934  -0.13934  -0.13934
 Alpha virt. eigenvalues --    0.25157   0.25157   0.25157   0.28051   0.49083
 Alpha virt. eigenvalues --    0.49083   0.49083   0.49083   0.49083   0.74101
 Alpha virt. eigenvalues --    0.74101   0.74101   0.91174   1.03420   1.03420
 Alpha virt. eigenvalues --    1.03420   1.03420   1.03420   1.20996   1.20996
 Alpha virt. eigenvalues --    1.20996   1.20996   1.20996   1.20996   1.20996
 Alpha virt. eigenvalues --    2.40773   2.40773   2.40773   2.56619   2.56619
 Alpha virt. eigenvalues --    2.56619   2.56619   2.56619   2.58279   2.58279
 Alpha virt. eigenvalues --    2.58279   2.58279   2.58279   2.58279   2.58279
 Alpha virt. eigenvalues --    3.73301
          Condensed to atoms (all electrons):
               1
     1  Br  36.000000
 Mulliken charges:
               1
     1  Br  -1.000000
 Sum of Mulliken charges =  -1.00000
 Mulliken charges with hydrogens summed into heavy atoms:
               1
     1  Br  -1.000000
 DipInt: DoE/N= T F RetVal/Mat= T F Init=T NMatP=  1 IDeriv=0 Min/MaxMlt=  0  4
 Entering OneElI...
 OneElI was handed  4294953684 working-precision words.
 Multipole integrals L=0 to 4 MinM= 0 MaxM= 0.
 Requested accuracy = 0.1000D-12
 ShPair: Thresh= 1.00D-13 NBox=     0 BxSize= 0.00D+00 RnKept= 0.00D+00
         NSMCal=                  190 NSMKep=                 190
 PrmmSu-InSpLW:  IPartL=    0 NPrtUS=    1 NPrtUL=    1 DoSpLW=F IThBeg=    0 IThEnd=    0 NThAct=    1.
 PrSmSu:  IncTry=   512 NBBP=            190 NTPThr=   100 NPartT=    1 Incr=           1 LDynOK=F GPUOK=F.
 PrsmSu:  NPrtUS=   1 ThrOK=F IAlg=2 LenDen=           0 ISkipM=0 DoSpLW=F IThBeg=    0 IThEnd=    0.
 Prism:   IPart=     0 DynPar=F LinDyn=F Incr=           1.
 PRISM was handed  4294855803 working-precision words and   190 shell-pairs
 IPart=  0 NShTot=         190 NBatch=          55 AvBLen=         3.5
 PrsmSu-ThDecC:  IPartSL=    0    0 NPrtUSL=    1    1 IThBeg=    0 IThEnd=    0 CPU=   -1 GPU=   -1 NThAct=    1.
 PrSmSu:  NxtVal=              2.
 Electronic moments (au):
        -36.00000000         -0.00000000         -0.00000000         -0.00000000
        -18.05330588        -18.05330588        -18.05330588         -0.00000000
         -0.00000000          0.00000000         -0.00000000         -0.00000000
         -0.00000000         -0.00000000         -0.00000000         -0.00000000
         -0.00000000         -0.00000000         -0.00000000         -0.00000000
       -121.50140189       -121.50140189       -121.50140189         -0.00000000
          0.00000000          0.00000000          0.00000000         -0.00000000
          0.00000000        -40.50046730        -40.50046730        -40.50046730
          0.00000000          0.00000000          0.00000000
 Electronic spatial extent (au):  <R**2>=             54.1599
 DipInt: DoE/N= F T RetVal/Mat= T F Init=T NMatP=  1 IDeriv=0 Min/MaxMlt=  0  4
 Nuclear    moments (au):
         35.00000000          0.00000000          0.00000000          0.00000000
          0.00000000          0.00000000          0.00000000          0.00000000
          0.00000000          0.00000000          0.00000000          0.00000000
          0.00000000          0.00000000          0.00000000          0.00000000
          0.00000000          0.00000000          0.00000000          0.00000000
          0.00000000          0.00000000          0.00000000          0.00000000
          0.00000000          0.00000000          0.00000000          0.00000000
          0.00000000          0.00000000          0.00000000          0.00000000
          0.00000000          0.00000000          0.00000000
 Total      moments (au):
         -1.00000000          0.00000000          0.00000000          0.00000000
        -18.05330588        -18.05330588        -18.05330588         -0.00000000
         -0.00000000          0.00000000          0.00000000          0.00000000
          0.00000000          0.00000000          0.00000000          0.00000000
          0.00000000          0.00000000          0.00000000          0.00000000
       -121.50140189       -121.50140189       -121.50140189         -0.00000000
          0.00000000          0.00000000          0.00000000         -0.00000000
          0.00000000        -40.50046730        -40.50046730        -40.50046730
          0.00000000          0.00000000          0.00000000
 Traceless Quadrup. (au):
         -0.00000000          0.00000000         -0.00000000         -0.00000000
         -0.00000000          0.00000000
 Charge=             -1.0000 electrons
 Dipole moment (field-independent basis, Debye):
    X=              0.0000    Y=              0.0000    Z=              0.0000  Tot=              0.0000
 Quadrupole moment (field-independent basis, Debye-Ang):
   XX=            -24.2823   YY=            -24.2823   ZZ=            -24.2823
   XY=             -0.0000   XZ=             -0.0000   YZ=              0.0000
 Traceless Quadrupole moment (field-independent basis, Debye-Ang):
   XX=             -0.0000   YY=              0.0000   ZZ=             -0.0000
   XY=             -0.0000   XZ=             -0.0000   YZ=              0.0000
 Octapole moment (field-independent basis, Debye-Ang**2):
  XXX=              0.0000  YYY=              0.0000  ZZZ=              0.0000  XYY=              0.0000
  XXY=              0.0000  XXZ=              0.0000  XZZ=              0.0000  YZZ=              0.0000
  YYZ=              0.0000  XYZ=              0.0000
 Hexadecapole moment (field-independent basis, Debye-Ang**3):
 XXXX=            -45.7633 YYYY=            -45.7633 ZZZZ=            -45.7633 XXXY=             -0.0000
 XXXZ=              0.0000 YYYX=              0.0000 YYYZ=              0.0000 ZZZX=             -0.0000
 ZZZY=              0.0000 XXYY=            -15.2544 XXZZ=            -15.2544 YYZZ=            -15.2544
 XXYZ=              0.0000 YYXZ=              0.0000 ZZXY=              0.0000
 N-N= 0.000000000000D+00 E-N=-6.164750197164D+03  KE= 2.572101455217D+03
 Symmetry AG   KE= 1.574921995283D+03
 Symmetry B1G  KE= 4.295852450554D+01
 Symmetry B2G  KE= 4.295852450554D+01
 Symmetry B3G  KE= 4.295852450554D+01
 Symmetry AU   KE= 4.284530515017D-03
 Symmetry B1U  KE= 2.894332006290D+02
 Symmetry B2U  KE= 2.894332006290D+02
 Symmetry B3U  KE= 2.894332006290D+02
 SetAtRh:  ITypeU=  23 NETotI=      -1 ICharg=  0 NETot=      35.
 StAtR1:  I=    1 I1=    1 IA= 35 C=  35.0 OKShel=TTTTTTTT
                                                  SSPSPDSP
                                                  22626A25
          I=    1 IA= 35 I1=    1 NAtG=30 NE=  35.000 C=  35.000 Err= 8.01D-12
 Pruned (  99, 590) grid will be used in numerical quadrature.
 IPart=  0 IRanGd=          0 ScrnBf=T ScrnGd=T RCrit=4.00D+00 DoMicB=T.
 CutRad = 1000.00    CtRdIn =    0.00    XCrit =  15.00   ICut = 0
 Pruned (  99, 590) grid will be used in numerical quadrature.
 IPart=  0 Atom number   1 atomic number 35 has       30654 grid points.
 IPart=  0 Atom   1 batch    1 overlaps    1 atoms,    19 shells and     1 DB shells.   NGrid=      1032
 Pruned (  99, 590) grid will be used in numerical quadrature.
 Symmetry reduced    86 angular points to    86 for atom    1.
 Pruned (  99, 590) grid will be used in numerical quadrature.
 IPart=  1 IRanGd=          0 ScrnBf=T ScrnGd=T RCrit=4.00D+00 DoMicB=T.
 CutRad = 1000.00    CtRdIn =    0.00    XCrit =  15.00   ICut = 0
 Pruned (  99, 590) grid will be used in numerical quadrature.
 Pruned (  99, 590) grid will be used in numerical quadrature.
 IPart=  4 IRanGd=          0 ScrnBf=T ScrnGd=T RCrit=4.00D+00 DoMicB=T.
 Pruned (  99, 590) grid will be used in numerical quadrature.
 IPart=  9 IRanGd=          0 ScrnBf=T ScrnGd=T RCrit=4.00D+00 DoMicB=T.
 IPart= 12 IRanGd=          0 ScrnBf=T ScrnGd=T RCrit=4.00D+00 DoMicB=T.
 IPart=  2 IRanGd=          0 ScrnBf=T ScrnGd=T RCrit=4.00D+00 DoMicB=T.
 Pruned (  99, 590) grid will be used in numerical quadrature.
 CutRad = 1000.00    CtRdIn =    0.00    XCrit =  15.00   ICut = 0
 Pruned (  99, 590) grid will be used in numerical quadrature.
 IPart= 10 IRanGd=          0 ScrnBf=T ScrnGd=T RCrit=4.00D+00 DoMicB=T.
 Pruned (  99, 590) grid will be used in numerical quadrature.
 CutRad = 1000.00    CtRdIn =    0.00    XCrit =  15.00   ICut = 0
 IPart=  1 Atom number   1 atomic number 35 has       30654 grid points.
 CutRad = 1000.00    CtRdIn =    0.00    XCrit =  15.00   ICut = 0
 CutRad = 1000.00    CtRdIn =    0.00    XCrit =  15.00   ICut = 0
 IPart= 13 IRanGd=          0 ScrnBf=T ScrnGd=T RCrit=4.00D+00 DoMicB=T.
 Pruned (  99, 590) grid will be used in numerical quadrature.
 Pruned (  99, 590) grid will be used in numerical quadrature.
 Pruned (  99, 590) grid will be used in numerical quadrature.
 IPart=  4 Atom number   1 atomic number 35 has       30654 grid points.
 IPart= 10 Atom number   1 atomic number 35 has       30654 grid points.
 IPart=  9 Atom number   1 atomic number 35 has       30654 grid points.
 IPart=  4 Atom   1 batch    4 overlaps    1 atoms,    19 shells and     1 DB shells.   NGrid=      1180
 CutRad = 1000.00    CtRdIn =    0.00    XCrit =  15.00   ICut = 0
 Pruned (  99, 590) grid will be used in numerical quadrature.
 IPart=  9 Atom   1 batch    3 overlaps    1 atoms,    19 shells and     1 DB shells.   NGrid=      1812
 Pruned (  99, 590) grid will be used in numerical quadrature.
 Pruned (  99, 590) grid will be used in numerical quadrature.
 Pruned (  99, 590) grid will be used in numerical quadrature.
 IPart= 14 IRanGd=          0 ScrnBf=T ScrnGd=T RCrit=4.00D+00 DoMicB=T.
 Pruned (  99, 590) grid will be used in numerical quadrature.
 CutRad = 1000.00    CtRdIn =    0.00    XCrit =  15.00   ICut = 0
 Pruned (  99, 590) grid will be used in numerical quadrature.
 IPart=  1 Atom   1 batch    2 overlaps    1 atoms,    19 shells and     1 DB shells.   NGrid=      2328
 Pruned (  99, 590) grid will be used in numerical quadrature.
 CutRad = 1000.00    CtRdIn =    0.00    XCrit =  15.00   ICut = 0
 IPart=  2 Atom number   1 atomic number 35 has       30654 grid points.
 Symmetry reduced   302 angular points to   302 for atom    1.
 IPart= 10 Atom   1 batch    5 overlaps    1 atoms,    19 shells and     1 DB shells.   NGrid=      1180
 Pruned (  99, 590) grid will be used in numerical quadrature.
 Symmetry reduced   590 angular points to   590 for atom    1.
 IPart=  3 IRanGd=          0 ScrnBf=T ScrnGd=T RCrit=4.00D+00 DoMicB=T.
 IPart= 15 IRanGd=          0 ScrnBf=T ScrnGd=T RCrit=4.00D+00 DoMicB=T.
 Symmetry reduced   590 angular points to   590 for atom    1.
 CutRad = 1000.00    CtRdIn =    0.00    XCrit =  15.00   ICut = 0
 IPart= 12 Atom number   1 atomic number 35 has       30654 grid points.
 Pruned (  99, 590) grid will be used in numerical quadrature.
 Pruned (  99, 590) grid will be used in numerical quadrature.
 Pruned (  99, 590) grid will be used in numerical quadrature.
 IPart=  7 IRanGd=          0 ScrnBf=T ScrnGd=T RCrit=4.00D+00 DoMicB=T.
 IPart= 12 Atom   1 batch    7 overlaps    1 atoms,    19 shells and     1 DB shells.   NGrid=      1180
 IPart= 15 Atom number   1 atomic number 35 has       30654 grid points.
 Symmetry reduced   194 angular points to   194 for atom    1.
 IPart= 11 IRanGd=          0 ScrnBf=T ScrnGd=T RCrit=4.00D+00 DoMicB=T.
 CutRad = 1000.00    CtRdIn =    0.00    XCrit =  15.00   ICut = 0
 CutRad = 1000.00    CtRdIn =    0.00    XCrit =  15.00   ICut = 0
 IPart=  6 IRanGd=          0 ScrnBf=T ScrnGd=T RCrit=4.00D+00 DoMicB=T.
 IPart=  5 IRanGd=          0 ScrnBf=T ScrnGd=T RCrit=4.00D+00 DoMicB=T.
 IPart=  2 Atom   1 batch    6 overlaps    1 atoms,    19 shells and     1 DB shells.   NGrid=      1180
 Pruned (  99, 590) grid will be used in numerical quadrature.
 CutRad = 1000.00    CtRdIn =    0.00    XCrit =  15.00   ICut = 0
 Pruned (  99, 590) grid will be used in numerical quadrature.
 IPart=  7 Atom number   1 atomic number 35 has       30654 grid points.
 CutRad = 1000.00    CtRdIn =    0.00    XCrit =  15.00   ICut = 0
 IPart=  7 Atom   1 batch   12 overlaps    1 atoms,    19 shells and     1 DB shells.   NGrid=      1180
 Pruned (  99, 590) grid will be used in numerical quadrature.
 Pruned (  99, 590) grid will be used in numerical quadrature.
 Pruned (  99, 590) grid will be used in numerical quadrature.
 Symmetry reduced   590 angular points to   590 for atom    1.
 IPart=  6 Atom number   1 atomic number 35 has       30654 grid points.
 IPart= 14 Atom number   1 atomic number 35 has       30654 grid points.
 IPart=  6 Atom   1 batch   14 overlaps    1 atoms,    19 shells and     1 DB shells.   NGrid=      1180
 IPart=  5 Atom number   1 atomic number 35 has       30654 grid points.
 IPart= 13 Atom number   1 atomic number 35 has       30654 grid points.
 IPart= 14 Atom   1 batch    9 overlaps    1 atoms,    19 shells and     1 DB shells.   NGrid=      1180
 IPart=  5 Atom   1 batch   13 overlaps    1 atoms,    19 shells and     1 DB shells.   NGrid=      1180
 IPart= 13 Atom   1 batch    8 overlaps    1 atoms,    19 shells and     1 DB shells.   NGrid=      1180
 Symmetry reduced   590 angular points to   590 for atom    1.
 Symmetry reduced   590 angular points to   590 for atom    1.
 Pruned (  99, 590) grid will be used in numerical quadrature.
 Symmetry reduced   590 angular points to   590 for atom    1.
 IPart= 15 Atom   1 batch   10 overlaps    1 atoms,    19 shells and     1 DB shells.   NGrid=      1180
 IPart= 11 Atom number   1 atomic number 35 has       30654 grid points.
 Symmetry reduced   590 angular points to   590 for atom    1.
 Symmetry reduced   590 angular points to   590 for atom    1.
 Symmetry reduced   590 angular points to   590 for atom    1.
 IPart=  8 IRanGd=          0 ScrnBf=T ScrnGd=T RCrit=4.00D+00 DoMicB=T.
 CutRad = 1000.00    CtRdIn =    0.00    XCrit =  15.00   ICut = 0
 IPart= 11 Atom   1 batch   11 overlaps    1 atoms,    19 shells and     1 DB shells.   NGrid=      1180
 CutRad = 1000.00    CtRdIn =    0.00    XCrit =  15.00   ICut = 0
 Symmetry reduced   590 angular points to   590 for atom    1.
 Symmetry reduced   590 angular points to   590 for atom    1.
 Pruned (  99, 590) grid will be used in numerical quadrature.
 Pruned (  99, 590) grid will be used in numerical quadrature.
 IPart=  3 Atom number   1 atomic number 35 has       30654 grid points.
 IPart=  8 Atom number   1 atomic number 35 has       30654 grid points.
 IPart=  3 Atom   1 batch   15 overlaps    1 atoms,    19 shells and     1 DB shells.   NGrid=      1180
 IPart=  8 Atom   1 batch   16 overlaps    1 atoms,    19 shells and     1 DB shells.   NGrid=      1180
 Symmetry reduced   590 angular points to   590 for atom    1.
 Symmetry reduced   590 angular points to   590 for atom    1.
 IPart=  0 Atom   1 batch   17 overlaps    1 atoms,    19 shells and     1 DB shells.   NGrid=      1180
 Symmetry reduced   590 angular points to   590 for atom    1.
 IPart= 10 Atom   1 batch   18 overlaps    1 atoms,    19 shells and     1 DB shells.   NGrid=      1180
 IPart=  4 Atom   1 batch   19 overlaps    1 atoms,    17 shells and     1 DB shells.   NGrid=      1180
 IPart=  2 Atom   1 batch   20 overlaps    1 atoms,    13 shells and     1 DB shells.   NGrid=      1180
 IPart= 12 Atom   1 batch   21 overlaps    1 atoms,    13 shells and     1 DB shells.   NGrid=       590
 IPart= 14 Atom   1 batch   22 overlaps    1 atoms,    13 shells and     1 DB shells.   NGrid=       604
 IPart= 13 Atom   1 batch   23 overlaps    1 atoms,    10 shells and     1 DB shells.   NGrid=       604
 Symmetry reduced   302 angular points to   302 for atom    1.
 Symmetry reduced   302 angular points to   302 for atom    1.
 IPart=  5 Atom   1 batch   24 overlaps    1 atoms,     9 shells and     1 DB shells.   NGrid=       604
 IPart= 15 Atom   1 batch   25 overlaps    1 atoms,     8 shells and     1 DB shells.   NGrid=       604
 IPart=  6 Atom   1 batch   27 overlaps    1 atoms,     4 shells and     0 DB shells.   NGrid=       604
 Symmetry reduced   302 angular points to   302 for atom    1.
 IPart= 11 Atom   1 batch   28 overlaps    1 atoms,     2 shells and     0 DB shells.   NGrid=       604
 Symmetry reduced   302 angular points to   302 for atom    1.
 IPart=  7 Atom   1 batch   26 overlaps    1 atoms,     5 shells and     0 DB shells.   NGrid=       604
 Symmetry reduced   302 angular points to   302 for atom    1.
 Symmetry reduced   302 angular points to   302 for atom    1.
 Symmetry reduced   302 angular points to   302 for atom    1.
 IPart=  3 Atom   1 batch   29 overlaps    1 atoms,     1 shells and     0 DB shells.   NGrid=       604
 Symmetry reduced   302 angular points to   302 for atom    1.
 There are a total of       30654 grid points.
 ElSum from          density=       35.9999999250
 ElSum from atomic densities=       34.9999993701

 Hirshfeld populations at iteration   1 (CX, CA, CB, DipXYZ):
               1          2          3          4          5          6
     1  Br   0.001960  18.000000  18.000000   0.000000   0.000000  -0.000000
       Tot   0.001960  18.000000  18.000000   0.000000   0.000000  -0.000000

 Dip from Atomic Chgs              0.000000   0.000000   0.000000
         Total Dipole              0.000000   0.000000  -0.000000

 Hirshfeld charges, spin densities, dipoles, and CM5 charges using IRadAn=      5:
              Q-H        S-H        Dx         Dy         Dz        Q-CM5   
     1  Br  -1.000000   0.000000   0.000000   0.000000  -0.000000  -1.000000
       Tot  -1.000000   0.000000   0.000000   0.000000  -0.000000  -1.000000
 Hirshfeld charges with hydrogens summed into heavy atoms:
              Q-H       Q-CM5   
     1  Br  -1.000000  -1.000000
 
 EQQ=  0.00000000000     EQD=  0.00000000000     EDD=  0.00000000000    
 EQQ+QD+DD=  0.00000000000    
 
 Entering OneElI...
 OneElI was handed  4294957294 working-precision words.
 Calculate electrostatic properties
    NBasis =    59  MinDer = 0  MaxDer = 0
    NGrid  =     1  NMatD  =   1
 Requested accuracy = 0.1000D-12
 ShPair: Thresh= 1.00D-13 NBox=     0 BxSize= 0.00D+00 RnKept= 0.00D+00
         NSMCal=                  190 NSMKep=                 151
 PrmmSu-InSpLW:  IPartL=    0 NPrtUS=   16 NPrtUL=    1 DoSpLW=F IThBeg=    0 IThEnd=   15 NThAct=   16.
 PrSmSu:  IncTry=   512 NBBP=            151 NTPThr=   100 NPartT=   16 Incr=           1 LDynOK=F GPUOK=F.
 PrsmSu:  NPrtUS=  16 ThrOK=T IAlg=2 LenDen=           0 ISkipM=0 DoSpLW=F IThBeg=    0 IThEnd=   15.
 Prism:   IPart=     0 DynPar=F LinDyn=F Incr=           1.
 PRISM was handed   268398576 working-precision words and   151 shell-pairs
 PRISM was handed   268398576 working-precision words and   151 shell-pairs
 PRISM was handed   268398576 working-precision words and   151 shell-pairs
 PRISM was handed   268398576 working-precision words and   151 shell-pairs
 PRISM was handed   268398576 working-precision words and   151 shell-pairs
 PRISM was handed   268398576 working-precision words and   151 shell-pairs
 PRISM was handed   268398576 working-precision words and   151 shell-pairs
 PRISM was handed   268398576 working-precision words and   151 shell-pairs
 PRISM was handed   268398576 working-precision words and   151 shell-pairs
 PRISM was handed   268398576 working-precision words and   151 shell-pairs
 PRISM was handed   268398576 working-precision words and   151 shell-pairs
 PRISM was handed   268398576 working-precision words and   151 shell-pairs
 PRISM was handed   268398576 working-precision words and   151 shell-pairs
 PRISM was handed   268398576 working-precision words and   151 shell-pairs
 PRISM was handed   268398576 working-precision words and   151 shell-pairs
 PRISM was handed   268398576 working-precision words and   151 shell-pairs
 IPart=  7 NShTot=           2 NBatch=           2 AvBLen=         1.0
 PrsmSu-ThDecC:  IPartSL=    7    0 NPrtUSL=   16    1 IThBeg=    0 IThEnd=   15 CPU=   -1 GPU=   -1 NThAct=   16.
 IPart=  8 NShTot=           2 NBatch=           2 AvBLen=         1.0
 PrsmSu-ThDecC:  IPartSL=    8    0 NPrtUSL=   16    1 IThBeg=    0 IThEnd=   15 CPU=   -1 GPU=   -1 NThAct=   15.
 IPart=  6 NShTot=           2 NBatch=           2 AvBLen=         1.0
 PrsmSu-ThDecC:  IPartSL=    6    0 NPrtUSL=   16    1 IThBeg=    0 IThEnd=   15 CPU=   -1 GPU=   -1 NThAct=   14.
 IPart=  9 NShTot=           0 NBatch=           0 AvBLen=         0.0
 PrsmSu-ThDecC:  IPartSL=    9    0 NPrtUSL=   16    1 IThBeg=    0 IThEnd=   15 CPU=   -1 GPU=   -1 NThAct=   13.
 IPart= 12 NShTot=           0 NBatch=           0 AvBLen=         0.0
 IPart=  3 NShTot=          14 NBatch=          14 AvBLen=         1.0
 PrsmSu-ThDecC:  IPartSL=   12    0 NPrtUSL=   16    1 IThBeg=    0 IThEnd=   15 CPU=   -1 GPU=   -1 NThAct=   12.
 IPart= 11 NShTot=           0 NBatch=           0 AvBLen=         0.0
 IPart= 13 NShTot=           0 NBatch=           0 AvBLen=         0.0
 IPart= 10 NShTot=           0 NBatch=           0 AvBLen=         0.0
 IPart= 15 NShTot=           0 NBatch=           0 AvBLen=         0.0
 IPart= 14 NShTot=           0 NBatch=           0 AvBLen=         0.0
 PrsmSu-ThDecC:  IPartSL=    3    0 NPrtUSL=   16    1 IThBeg=    0 IThEnd=   15 CPU=   -1 GPU=   -1 NThAct=   11.
 PrsmSu-ThDecC:  IPartSL=   15    0 NPrtUSL=   16    1 IThBeg=    0 IThEnd=   15 CPU=   -1 GPU=   -1 NThAct=   10.
 PrsmSu-ThDecC:  IPartSL=   10    0 NPrtUSL=   16    1 IThBeg=    0 IThEnd=   15 CPU=   -1 GPU=   -1 NThAct=    9.
 IPart=  4 NShTot=          12 NBatch=          12 AvBLen=         1.0
 PrsmSu-ThDecC:  IPartSL=   13    0 NPrtUSL=   16    1 IThBeg=    0 IThEnd=   15 CPU=   -1 GPU=   -1 NThAct=    8.
 IPart=  5 NShTot=          12 NBatch=          12 AvBLen=         1.0
 PrsmSu-ThDecC:  IPartSL=   14    0 NPrtUSL=   16    1 IThBeg=    0 IThEnd=   15 CPU=   -1 GPU=   -1 NThAct=    7.
 PrsmSu-ThDecC:  IPartSL=    5    0 NPrtUSL=   16    1 IThBeg=    0 IThEnd=   15 CPU=   -1 GPU=   -1 NThAct=    6.
 PrsmSu-ThDecC:  IPartSL=    4    0 NPrtUSL=   16    1 IThBeg=    0 IThEnd=   15 CPU=   -1 GPU=   -1 NThAct=    5.
 PrsmSu-ThDecC:  IPartSL=   11    0 NPrtUSL=   16    1 IThBeg=    0 IThEnd=   15 CPU=   -1 GPU=   -1 NThAct=    4.
 IPart=  2 NShTot=          26 NBatch=          26 AvBLen=         1.0
 PrsmSu-ThDecC:  IPartSL=    2    0 NPrtUSL=   16    1 IThBeg=    0 IThEnd=   15 CPU=   -1 GPU=   -1 NThAct=    3.
 IPart=  1 NShTot=          36 NBatch=          36 AvBLen=         1.0
 PrsmSu-ThDecC:  IPartSL=    1    0 NPrtUSL=   16    1 IThBeg=    0 IThEnd=   15 CPU=   -1 GPU=   -1 NThAct=    2.
 IPart=  0 NShTot=          45 NBatch=          45 AvBLen=         1.0
 PrsmSu-ThDecC:  IPartSL=    0    0 NPrtUSL=   16    1 IThBeg=    0 IThEnd=   15 CPU=   -1 GPU=   -1 NThAct=    1.
 PrSmSu:  NxtVal=             17.
 --------------------------------------------------------
       Center         ----      EFG at Nuclei      ----
                      3XX-RR        3YY-RR        3ZZ-RR
 --------------------------------------------------------
     1   Atom        0.000000      0.000000     -0.000000
 --------------------------------------------------------
                        XY            XZ            YZ
 --------------------------------------------------------
     1   Atom        0.000000      0.000000      0.000000
 --------------------------------------------------------


 ---------------------------------------------------------------------------------
              Nuclear Quadrupole Coupling Constant in Principal Axis System
 ---------------------------------------------------------------------------------

       Atom             a.u.   MegaHertz   Gauss  10(-4) cm-1        Axes

              Baa    -0.0000     0.000     0.000     0.000  0.0000  0.0000  1.0000
     1 Br(79) Bbb     0.0000    -0.000    -0.000    -0.000 -0.0000  1.0000  0.0000
              Bcc     0.0000    -0.000    -0.000    -0.000  1.0000  0.0000  0.0000
 

 ---------------------------------------------------------------------------------

 No NMR shielding tensors so no spin-rotation constants.
 Leave Link  601 at Tue Sep 30 16:58:56 2025, MaxMem=  4294967296 cpu:               2.1 elap:               0.2
 (Enter /software/sse/easybuild/prefix/software/Gaussian/16.C.01-avx2-nsc1/g16/l602.exe)
 FitSet:  NAtFit=     1 NAtPot=     1 NAtFrz=     0 MDM=     5 TotChg=  -1.00000
 Merz-Kollman atomic radii used.
 Atom Element Radius
    1    35    2.30
 Generate VDW surfaces: Layer= 4 Dens= 6 Start= 1.400 Inc= 0.200

 **********************************************************************

            Electrostatic Properties Using The MP2 Density.

 **********************************************************************

       Atomic Center    1 is at   0.000000  0.000000  0.000000
      ESP Fit Center    2 is at   0.000000  0.000000  3.220000
      ESP Fit Center    3 is at   0.420294  0.000000  3.192452
      ESP Fit Center    4 is at   0.210147  0.363986  3.192452
      ESP Fit Center    5 is at  -0.210147  0.363986  3.192452
      ESP Fit Center    6 is at  -0.420294  0.000000  3.192452
      ESP Fit Center    7 is at  -0.210147 -0.363986  3.192452
      ESP Fit Center    8 is at   0.210147 -0.363986  3.192452
      ESP Fit Center    9 is at   0.833397  0.000000  3.110281
      ESP Fit Center   10 is at   0.721743  0.416699  3.110281
      ESP Fit Center   11 is at   0.416699  0.721743  3.110281
      ESP Fit Center   12 is at   0.000000  0.833397  3.110281
      ESP Fit Center   13 is at  -0.416699  0.721743  3.110281
      ESP Fit Center   14 is at  -0.721743  0.416699  3.110281
      ESP Fit Center   15 is at  -0.833397  0.000000  3.110281
      ESP Fit Center   16 is at  -0.721743 -0.416699  3.110281
      ESP Fit Center   17 is at  -0.416699 -0.721743  3.110281
      ESP Fit Center   18 is at  -0.000000 -0.833397  3.110281
      ESP Fit Center   19 is at   0.416699 -0.721743  3.110281
      ESP Fit Center   20 is at   0.721743 -0.416699  3.110281
      ESP Fit Center   21 is at   1.232241  0.000000  2.974892
      ESP Fit Center   22 is at   1.157927  0.421451  2.974892
      ESP Fit Center   23 is at   0.943951  0.792069  2.974892
      ESP Fit Center   24 is at   0.616120  1.067152  2.974892
      ESP Fit Center   25 is at   0.213976  1.213520  2.974892
      ESP Fit Center   26 is at  -0.213976  1.213520  2.974892
      ESP Fit Center   27 is at  -0.616120  1.067152  2.974892
      ESP Fit Center   28 is at  -0.943951  0.792069  2.974892
      ESP Fit Center   29 is at  -1.157927  0.421451  2.974892
      ESP Fit Center   30 is at  -1.232241  0.000000  2.974892
      ESP Fit Center   31 is at  -1.157927 -0.421451  2.974892
      ESP Fit Center   32 is at  -0.943951 -0.792069  2.974892
      ESP Fit Center   33 is at  -0.616120 -1.067152  2.974892
      ESP Fit Center   34 is at  -0.213976 -1.213520  2.974892
      ESP Fit Center   35 is at   0.213976 -1.213520  2.974892
      ESP Fit Center   36 is at   0.616120 -1.067152  2.974892
      ESP Fit Center   37 is at   0.943951 -0.792069  2.974892
      ESP Fit Center   38 is at   1.157927 -0.421451  2.974892
      ESP Fit Center   39 is at   1.610000  0.000000  2.788602
      ESP Fit Center   40 is at   1.555141  0.416699  2.788602
      ESP Fit Center   41 is at   1.394301  0.805000  2.788602
      ESP Fit Center   42 is at   1.138442  1.138442  2.788602
      ESP Fit Center   43 is at   0.805000  1.394301  2.788602
      ESP Fit Center   44 is at   0.416699  1.555141  2.788602
      ESP Fit Center   45 is at   0.000000  1.610000  2.788602
      ESP Fit Center   46 is at  -0.416699  1.555141  2.788602
      ESP Fit Center   47 is at  -0.805000  1.394301  2.788602
      ESP Fit Center   48 is at  -1.138442  1.138442  2.788602
      ESP Fit Center   49 is at  -1.394301  0.805000  2.788602
      ESP Fit Center   50 is at  -1.555141  0.416699  2.788602
      ESP Fit Center   51 is at  -1.610000  0.000000  2.788602
      ESP Fit Center   52 is at  -1.555141 -0.416699  2.788602
      ESP Fit Center   53 is at  -1.394301 -0.805000  2.788602
      ESP Fit Center   54 is at  -1.138442 -1.138442  2.788602
      ESP Fit Center   55 is at  -0.805000 -1.394301  2.788602
      ESP Fit Center   56 is at  -0.416699 -1.555141  2.788602
      ESP Fit Center   57 is at  -0.000000 -1.610000  2.788602
      ESP Fit Center   58 is at   0.416699 -1.555141  2.788602
      ESP Fit Center   59 is at   0.805000 -1.394301  2.788602
      ESP Fit Center   60 is at   1.138442 -1.138442  2.788602
      ESP Fit Center   61 is at   1.394301 -0.805000  2.788602
      ESP Fit Center   62 is at   1.555141 -0.416699  2.788602
      ESP Fit Center   63 is at   1.960212  0.000000  2.554598
      ESP Fit Center   64 is at   1.914383  0.421388  2.554598
      ESP Fit Center   65 is at   1.779040  0.823072  2.554598
      ESP Fit Center   66 is at   1.560511  1.186270  2.554598
      ESP Fit Center   67 is at   1.269014  1.493999  2.554598
      ESP Fit Center   68 is at   0.918180  1.731871  2.554598
      ESP Fit Center   69 is at   0.524412  1.888762  2.554598
      ESP Fit Center   70 is at   0.106124  1.957337  2.554598
      ESP Fit Center   71 is at  -0.317127  1.934389  2.554598
      ESP Fit Center   72 is at  -0.725549  1.820991  2.554598
      ESP Fit Center   73 is at  -1.100046  1.622446  2.554598
      ESP Fit Center   74 is at  -1.423105  1.348037  2.554598
      ESP Fit Center   75 is at  -1.679622  1.010595  2.554598
      ESP Fit Center   76 is at  -1.857601  0.625899  2.554598
      ESP Fit Center   77 is at  -1.948721  0.211936  2.554598
      ESP Fit Center   78 is at  -1.948721 -0.211936  2.554598
      ESP Fit Center   79 is at  -1.857601 -0.625899  2.554598
      ESP Fit Center   80 is at  -1.679622 -1.010595  2.554598
      ESP Fit Center   81 is at  -1.423105 -1.348037  2.554598
      ESP Fit Center   82 is at  -1.100046 -1.622446  2.554598
      ESP Fit Center   83 is at  -0.725549 -1.820991  2.554598
      ESP Fit Center   84 is at  -0.317127 -1.934389  2.554598
      ESP Fit Center   85 is at   0.106124 -1.957337  2.554598
      ESP Fit Center   86 is at   0.524412 -1.888762  2.554598
      ESP Fit Center   87 is at   0.918180 -1.731871  2.554598
      ESP Fit Center   88 is at   1.269014 -1.493999  2.554598
      ESP Fit Center   89 is at   1.560511 -1.186270  2.554598
      ESP Fit Center   90 is at   1.779040 -0.823072  2.554598
      ESP Fit Center   91 is at   1.914383 -0.421388  2.554598
      ESP Fit Center   92 is at   2.276884  0.000000  2.276884
      ESP Fit Center   93 is at   2.238116  0.418376  2.276884
      ESP Fit Center   94 is at   2.123131  0.822505  2.276884
      ESP Fit Center   95 is at   1.935846  1.198625  2.276884
      ESP Fit Center   96 is at   1.682637  1.533927  2.276884
      ESP Fit Center   97 is at   1.372129  1.816993  2.276884
      ESP Fit Center   98 is at   1.014894  2.038183  2.276884
      ESP Fit Center   99 is at   0.623099  2.189965  2.276884
      ESP Fit Center  100 is at   0.210084  2.267171  2.276884
      ESP Fit Center  101 is at  -0.210084  2.267171  2.276884
      ESP Fit Center  102 is at  -0.623099  2.189965  2.276884
      ESP Fit Center  103 is at  -1.014894  2.038183  2.276884
      ESP Fit Center  104 is at  -1.372129  1.816993  2.276884
      ESP Fit Center  105 is at  -1.682637  1.533927  2.276884
      ESP Fit Center  106 is at  -1.935846  1.198625  2.276884
      ESP Fit Center  107 is at  -2.123131  0.822505  2.276884
      ESP Fit Center  108 is at  -2.238116  0.418376  2.276884
      ESP Fit Center  109 is at  -2.276884  0.000000  2.276884
      ESP Fit Center  110 is at  -2.238116 -0.418376  2.276884
      ESP Fit Center  111 is at  -2.123131 -0.822505  2.276884
      ESP Fit Center  112 is at  -1.935846 -1.198625  2.276884
      ESP Fit Center  113 is at  -1.682637 -1.533927  2.276884
      ESP Fit Center  114 is at  -1.372129 -1.816993  2.276884
      ESP Fit Center  115 is at  -1.014894 -2.038183  2.276884
      ESP Fit Center  116 is at  -0.623099 -2.189965  2.276884
      ESP Fit Center  117 is at  -0.210084 -2.267171  2.276884
      ESP Fit Center  118 is at   0.210084 -2.267171  2.276884
      ESP Fit Center  119 is at   0.623099 -2.189965  2.276884
      ESP Fit Center  120 is at   1.014894 -2.038183  2.276884
      ESP Fit Center  121 is at   1.372129 -1.816993  2.276884
      ESP Fit Center  122 is at   1.682637 -1.533927  2.276884
      ESP Fit Center  123 is at   1.935846 -1.198625  2.276884
      ESP Fit Center  124 is at   2.123131 -0.822505  2.276884
      ESP Fit Center  125 is at   2.238116 -0.418376  2.276884
      ESP Fit Center  126 is at   2.554598  0.000000  1.960212
      ESP Fit Center  127 is at   2.519756  0.420473  1.960212
      ESP Fit Center  128 is at   2.416183  0.829477  1.960212
      ESP Fit Center  129 is at   2.246702  1.215854  1.960212
      ESP Fit Center  130 is at   2.015937  1.569066  1.960212
      ESP Fit Center  131 is at   1.730182  1.879479  1.960212
      ESP Fit Center  132 is at   1.397233  2.138624  1.960212
      ESP Fit Center  133 is at   1.026170  2.339432  1.960212
      ESP Fit Center  134 is at   0.627117  2.476428  1.960212
      ESP Fit Center  135 is at   0.210957  2.545873  1.960212
      ESP Fit Center  136 is at  -0.210957  2.545873  1.960212
      ESP Fit Center  137 is at  -0.627117  2.476428  1.960212
      ESP Fit Center  138 is at  -1.026170  2.339432  1.960212
      ESP Fit Center  139 is at  -1.397233  2.138624  1.960212
      ESP Fit Center  140 is at  -1.730182  1.879479  1.960212
      ESP Fit Center  141 is at  -2.015937  1.569066  1.960212
      ESP Fit Center  142 is at  -2.246702  1.215854  1.960212
      ESP Fit Center  143 is at  -2.416183  0.829477  1.960212
      ESP Fit Center  144 is at  -2.519756  0.420473  1.960212
      ESP Fit Center  145 is at  -2.554598  0.000000  1.960212
      ESP Fit Center  146 is at  -2.519756 -0.420473  1.960212
      ESP Fit Center  147 is at  -2.416183 -0.829477  1.960212
      ESP Fit Center  148 is at  -2.246702 -1.215854  1.960212
      ESP Fit Center  149 is at  -2.015937 -1.569066  1.960212
      ESP Fit Center  150 is at  -1.730182 -1.879479  1.960212
      ESP Fit Center  151 is at  -1.397233 -2.138624  1.960212
      ESP Fit Center  152 is at  -1.026170 -2.339432  1.960212
      ESP Fit Center  153 is at  -0.627117 -2.476428  1.960212
      ESP Fit Center  154 is at  -0.210957 -2.545873  1.960212
      ESP Fit Center  155 is at   0.210957 -2.545873  1.960212
      ESP Fit Center  156 is at   0.627117 -2.476428  1.960212
      ESP Fit Center  157 is at   1.026170 -2.339432  1.960212
      ESP Fit Center  158 is at   1.397233 -2.138624  1.960212
      ESP Fit Center  159 is at   1.730182 -1.879479  1.960212
      ESP Fit Center  160 is at   2.015937 -1.569066  1.960212
      ESP Fit Center  161 is at   2.246702 -1.215854  1.960212
      ESP Fit Center  162 is at   2.416183 -0.829477  1.960212
      ESP Fit Center  163 is at   2.519756 -0.420473  1.960212
      ESP Fit Center  164 is at   2.788602  0.000000  1.610000
      ESP Fit Center  165 is at   2.757455  0.415620  1.610000
      ESP Fit Center  166 is at   2.664712  0.821955  1.610000
      ESP Fit Center  167 is at   2.512443  1.209929  1.610000
      ESP Fit Center  168 is at   2.304051  1.570875  1.610000
      ESP Fit Center  169 is at   2.044190  1.896731  1.610000
      ESP Fit Center  170 is at   1.738665  2.180217  1.610000
      ESP Fit Center  171 is at   1.394301  2.415000  1.610000
      ESP Fit Center  172 is at   1.018791  2.595836  1.610000
      ESP Fit Center  173 is at   0.620522  2.718686  1.610000
      ESP Fit Center  174 is at   0.208392  2.780804  1.610000
      ESP Fit Center  175 is at  -0.208392  2.780804  1.610000
      ESP Fit Center  176 is at  -0.620522  2.718686  1.610000
      ESP Fit Center  177 is at  -1.018791  2.595836  1.610000
      ESP Fit Center  178 is at  -1.394301  2.415000  1.610000
      ESP Fit Center  179 is at  -1.738665  2.180217  1.610000
      ESP Fit Center  180 is at  -2.044190  1.896731  1.610000
      ESP Fit Center  181 is at  -2.304051  1.570875  1.610000
      ESP Fit Center  182 is at  -2.512443  1.209929  1.610000
      ESP Fit Center  183 is at  -2.664712  0.821955  1.610000
      ESP Fit Center  184 is at  -2.757455  0.415620  1.610000
      ESP Fit Center  185 is at  -2.788602  0.000000  1.610000
      ESP Fit Center  186 is at  -2.757455 -0.415620  1.610000
      ESP Fit Center  187 is at  -2.664712 -0.821955  1.610000
      ESP Fit Center  188 is at  -2.512443 -1.209929  1.610000
      ESP Fit Center  189 is at  -2.304051 -1.570875  1.610000
      ESP Fit Center  190 is at  -2.044190 -1.896731  1.610000
      ESP Fit Center  191 is at  -1.738665 -2.180217  1.610000
      ESP Fit Center  192 is at  -1.394301 -2.415000  1.610000
      ESP Fit Center  193 is at  -1.018791 -2.595836  1.610000
      ESP Fit Center  194 is at  -0.620522 -2.718686  1.610000
      ESP Fit Center  195 is at  -0.208392 -2.780804  1.610000
      ESP Fit Center  196 is at   0.208392 -2.780804  1.610000
      ESP Fit Center  197 is at   0.620522 -2.718686  1.610000
      ESP Fit Center  198 is at   1.018791 -2.595836  1.610000
      ESP Fit Center  199 is at   1.394301 -2.415000  1.610000
      ESP Fit Center  200 is at   1.738665 -2.180217  1.610000
      ESP Fit Center  201 is at   2.044190 -1.896731  1.610000
      ESP Fit Center  202 is at   2.304051 -1.570875  1.610000
      ESP Fit Center  203 is at   2.512443 -1.209929  1.610000
      ESP Fit Center  204 is at   2.664712 -0.821955  1.610000
      ESP Fit Center  205 is at   2.757455 -0.415620  1.610000
      ESP Fit Center  206 is at   2.974892  0.000000  1.232241
      ESP Fit Center  207 is at   2.945941  0.414025  1.232241
      ESP Fit Center  208 is at   2.859650  0.819991  1.232241
      ESP Fit Center  209 is at   2.717699  1.209998  1.232241
      ESP Fit Center  210 is at   2.522852  1.576453  1.232241
      ESP Fit Center  211 is at   2.278900  1.912224  1.232241
      ESP Fit Center  212 is at   1.990591  2.210776  1.232241
      ESP Fit Center  213 is at   1.663539  2.466297  1.232241
      ESP Fit Center  214 is at   1.304107  2.673815  1.232241
      ESP Fit Center  215 is at   0.919292  2.829291  1.232241
      ESP Fit Center  216 is at   0.516585  2.929697  1.232241
      ESP Fit Center  217 is at   0.103822  2.973080  1.232241
      ESP Fit Center  218 is at  -0.310961  2.958595  1.232241
      ESP Fit Center  219 is at  -0.719692  2.886525  1.232241
      ESP Fit Center  220 is at  -1.114414  2.758272  1.232241
      ESP Fit Center  221 is at  -1.487446  2.576332  1.232241
      ESP Fit Center  222 is at  -1.831526  2.344247  1.232241
      ESP Fit Center  223 is at  -2.139958  2.066534  1.232241
      ESP Fit Center  224 is at  -2.406738  1.748598  1.232241
      ESP Fit Center  225 is at  -2.626674  1.396627  1.232241
      ESP Fit Center  226 is at  -2.795484  1.017473  1.232241
      ESP Fit Center  227 is at  -2.909884  0.618515  1.232241
      ESP Fit Center  228 is at  -2.967645  0.207518  1.232241
      ESP Fit Center  229 is at  -2.967645 -0.207518  1.232241
      ESP Fit Center  230 is at  -2.909884 -0.618515  1.232241
      ESP Fit Center  231 is at  -2.795484 -1.017473  1.232241
      ESP Fit Center  232 is at  -2.626674 -1.396627  1.232241
      ESP Fit Center  233 is at  -2.406738 -1.748598  1.232241
      ESP Fit Center  234 is at  -2.139958 -2.066534  1.232241
      ESP Fit Center  235 is at  -1.831526 -2.344247  1.232241
      ESP Fit Center  236 is at  -1.487446 -2.576332  1.232241
      ESP Fit Center  237 is at  -1.114414 -2.758272  1.232241
      ESP Fit Center  238 is at  -0.719692 -2.886525  1.232241
      ESP Fit Center  239 is at  -0.310961 -2.958595  1.232241
      ESP Fit Center  240 is at   0.103822 -2.973080  1.232241
      ESP Fit Center  241 is at   0.516585 -2.929697  1.232241
      ESP Fit Center  242 is at   0.919292 -2.829291  1.232241
      ESP Fit Center  243 is at   1.304107 -2.673815  1.232241
      ESP Fit Center  244 is at   1.663539 -2.466297  1.232241
      ESP Fit Center  245 is at   1.990591 -2.210776  1.232241
      ESP Fit Center  246 is at   2.278900 -1.912224  1.232241
      ESP Fit Center  247 is at   2.522852 -1.576453  1.232241
      ESP Fit Center  248 is at   2.717699 -1.209998  1.232241
      ESP Fit Center  249 is at   2.859650 -0.819991  1.232241
      ESP Fit Center  250 is at   2.945941 -0.414025  1.232241
      ESP Fit Center  251 is at   3.110281  0.000000  0.833397
      ESP Fit Center  252 is at   3.082530  0.414560  0.833397
      ESP Fit Center  253 is at   2.999770  0.821722  0.833397
      ESP Fit Center  254 is at   2.863480  1.214220  0.833397
      ESP Fit Center  255 is at   2.676091  1.585051  0.833397
      ESP Fit Center  256 is at   2.440947  1.927596  0.833397
      ESP Fit Center  257 is at   2.162244  2.235744  0.833397
      ESP Fit Center  258 is at   1.844956  2.503994  0.833397
      ESP Fit Center  259 is at   1.494744  2.727561  0.833397
      ESP Fit Center  260 is at   1.117859  2.902454  0.833397
      ESP Fit Center  261 is at   0.721026  3.025553  0.833397
      ESP Fit Center  262 is at   0.311326  3.094661  0.833397
      ESP Fit Center  263 is at  -0.103930  3.108544  0.833397
      ESP Fit Center  264 is at  -0.517331  3.066956  0.833397
      ESP Fit Center  265 is at  -0.921500  2.970637  0.833397
      ESP Fit Center  266 is at  -1.309225  2.821308  0.833397
      ESP Fit Center  267 is at  -1.673587  2.621632  0.833397
      ESP Fit Center  268 is at  -2.008084  2.375173  0.833397
      ESP Fit Center  269 is at  -2.306747  2.086329  0.833397
      ESP Fit Center  270 is at  -2.564245  1.760255  0.833397
      ESP Fit Center  271 is at  -2.775985  1.402768  0.833397
      ESP Fit Center  272 is at  -2.938186  1.020250  0.833397
      ESP Fit Center  273 is at  -3.047956  0.619524  0.833397
      ESP Fit Center  274 is at  -3.103336  0.207744  0.833397
      ESP Fit Center  275 is at  -3.103336 -0.207744  0.833397
      ESP Fit Center  276 is at  -3.047956 -0.619524  0.833397
      ESP Fit Center  277 is at  -2.938186 -1.020250  0.833397
      ESP Fit Center  278 is at  -2.775985 -1.402768  0.833397
      ESP Fit Center  279 is at  -2.564245 -1.760255  0.833397
      ESP Fit Center  280 is at  -2.306747 -2.086329  0.833397
      ESP Fit Center  281 is at  -2.008084 -2.375173  0.833397
      ESP Fit Center  282 is at  -1.673587 -2.621632  0.833397
      ESP Fit Center  283 is at  -1.309225 -2.821308  0.833397
      ESP Fit Center  284 is at  -0.921500 -2.970637  0.833397
      ESP Fit Center  285 is at  -0.517331 -3.066956  0.833397
      ESP Fit Center  286 is at  -0.103930 -3.108544  0.833397
      ESP Fit Center  287 is at   0.311326 -3.094661  0.833397
      ESP Fit Center  288 is at   0.721026 -3.025553  0.833397
      ESP Fit Center  289 is at   1.117859 -2.902454  0.833397
      ESP Fit Center  290 is at   1.494744 -2.727561  0.833397
      ESP Fit Center  291 is at   1.844956 -2.503994  0.833397
      ESP Fit Center  292 is at   2.162244 -2.235744  0.833397
      ESP Fit Center  293 is at   2.440947 -1.927596  0.833397
      ESP Fit Center  294 is at   2.676091 -1.585051  0.833397
      ESP Fit Center  295 is at   2.863480 -1.214220  0.833397
      ESP Fit Center  296 is at   2.999770 -0.821722  0.833397
      ESP Fit Center  297 is at   3.082530 -0.414560  0.833397
      ESP Fit Center  298 is at   3.192452  0.000000  0.420294
      ESP Fit Center  299 is at   3.165141  0.416699  0.420294
      ESP Fit Center  300 is at   3.083672  0.826267  0.420294
      ESP Fit Center  301 is at   2.949441  1.221699  0.420294
      ESP Fit Center  302 is at   2.764745  1.596226  0.420294
      ESP Fit Center  303 is at   2.532743  1.943442  0.420294
      ESP Fit Center  304 is at   2.257405  2.257405  0.420294
      ESP Fit Center  305 is at   1.943442  2.532743  0.420294
      ESP Fit Center  306 is at   1.596226  2.764745  0.420294
      ESP Fit Center  307 is at   1.221699  2.949441  0.420294
      ESP Fit Center  308 is at   0.826267  3.083672  0.420294
      ESP Fit Center  309 is at   0.416699  3.165141  0.420294
      ESP Fit Center  310 is at   0.000000  3.192452  0.420294
      ESP Fit Center  311 is at  -0.416699  3.165141  0.420294
      ESP Fit Center  312 is at  -0.826267  3.083672  0.420294
      ESP Fit Center  313 is at  -1.221699  2.949441  0.420294
      ESP Fit Center  314 is at  -1.596226  2.764745  0.420294
      ESP Fit Center  315 is at  -1.943442  2.532743  0.420294
      ESP Fit Center  316 is at  -2.257405  2.257405  0.420294
      ESP Fit Center  317 is at  -2.532743  1.943442  0.420294
      ESP Fit Center  318 is at  -2.764745  1.596226  0.420294
      ESP Fit Center  319 is at  -2.949441  1.221699  0.420294
      ESP Fit Center  320 is at  -3.083672  0.826267  0.420294
      ESP Fit Center  321 is at  -3.165141  0.416699  0.420294
      ESP Fit Center  322 is at  -3.192452  0.000000  0.420294
      ESP Fit Center  323 is at  -3.165141 -0.416699  0.420294
      ESP Fit Center  324 is at  -3.083672 -0.826267  0.420294
      ESP Fit Center  325 is at  -2.949441 -1.221699  0.420294
      ESP Fit Center  326 is at  -2.764745 -1.596226  0.420294
      ESP Fit Center  327 is at  -2.532743 -1.943442  0.420294
      ESP Fit Center  328 is at  -2.257405 -2.257405  0.420294
      ESP Fit Center  329 is at  -1.943442 -2.532743  0.420294
      ESP Fit Center  330 is at  -1.596226 -2.764745  0.420294
      ESP Fit Center  331 is at  -1.221699 -2.949441  0.420294
      ESP Fit Center  332 is at  -0.826267 -3.083672  0.420294
      ESP Fit Center  333 is at  -0.416699 -3.165141  0.420294
      ESP Fit Center  334 is at  -0.000000 -3.192452  0.420294
      ESP Fit Center  335 is at   0.416699 -3.165141  0.420294
      ESP Fit Center  336 is at   0.826267 -3.083672  0.420294
      ESP Fit Center  337 is at   1.221699 -2.949441  0.420294
      ESP Fit Center  338 is at   1.596226 -2.764745  0.420294
      ESP Fit Center  339 is at   1.943442 -2.532743  0.420294
      ESP Fit Center  340 is at   2.257405 -2.257405  0.420294
      ESP Fit Center  341 is at   2.532743 -1.943442  0.420294
      ESP Fit Center  342 is at   2.764745 -1.596226  0.420294
      ESP Fit Center  343 is at   2.949441 -1.221699  0.420294
      ESP Fit Center  344 is at   3.083672 -0.826267  0.420294
      ESP Fit Center  345 is at   3.165141 -0.416699  0.420294
      ESP Fit Center  346 is at   3.220000  0.000000  0.000000
      ESP Fit Center  347 is at   3.193564  0.411764  0.000000
      ESP Fit Center  348 is at   3.114689  0.816768  0.000000
      ESP Fit Center  349 is at   2.984672  1.208360  0.000000
      ESP Fit Center  350 is at   2.805646  1.580111  0.000000
      ESP Fit Center  351 is at   2.580552  1.925916  0.000000
      ESP Fit Center  352 is at   2.313085  2.240098  0.000000
      ESP Fit Center  353 is at   2.007637  2.517497  0.000000
      ESP Fit Center  354 is at   1.669224  2.753560  0.000000
      ESP Fit Center  355 is at   1.303402  2.944409  0.000000
      ESP Fit Center  356 is at   0.916179  3.086910  0.000000
      ESP Fit Center  357 is at   0.513912  3.178725  0.000000
      ESP Fit Center  358 is at   0.103206  3.218346  0.000000
      ESP Fit Center  359 is at  -0.309194  3.205121  0.000000
      ESP Fit Center  360 is at  -0.716517  3.139268  0.000000
      ESP Fit Center  361 is at  -1.112075  3.021868  0.000000
      ESP Fit Center  362 is at  -1.489373  2.854850  0.000000
      ESP Fit Center  363 is at  -1.842216  2.640955  0.000000
      ESP Fit Center  364 is at  -2.164809  2.383695  0.000000
      ESP Fit Center  365 is at  -2.451856  2.087295  0.000000
      ESP Fit Center  366 is at  -2.698644  1.756622  0.000000
      ESP Fit Center  367 is at  -2.901120  1.397106  0.000000
      ESP Fit Center  368 is at  -3.055960  1.014648  0.000000
      ESP Fit Center  369 is at  -3.160620  0.615531  0.000000
      ESP Fit Center  370 is at  -3.213384  0.206306  0.000000
      ESP Fit Center  371 is at  -3.213384 -0.206306  0.000000
      ESP Fit Center  372 is at  -3.160620 -0.615531  0.000000
      ESP Fit Center  373 is at  -3.055960 -1.014648  0.000000
      ESP Fit Center  374 is at  -2.901120 -1.397106  0.000000
      ESP Fit Center  375 is at  -2.698644 -1.756622  0.000000
      ESP Fit Center  376 is at  -2.451856 -2.087295  0.000000
      ESP Fit Center  377 is at  -2.164809 -2.383695  0.000000
      ESP Fit Center  378 is at  -1.842216 -2.640955  0.000000
      ESP Fit Center  379 is at  -1.489373 -2.854850  0.000000
      ESP Fit Center  380 is at  -1.112075 -3.021868  0.000000
      ESP Fit Center  381 is at  -0.716517 -3.139268  0.000000
      ESP Fit Center  382 is at  -0.309194 -3.205121  0.000000
      ESP Fit Center  383 is at   0.103206 -3.218346  0.000000
      ESP Fit Center  384 is at   0.513912 -3.178725  0.000000
      ESP Fit Center  385 is at   0.916179 -3.086910  0.000000
      ESP Fit Center  386 is at   1.303402 -2.944409  0.000000
      ESP Fit Center  387 is at   1.669224 -2.753560  0.000000
      ESP Fit Center  388 is at   2.007637 -2.517497  0.000000
      ESP Fit Center  389 is at   2.313085 -2.240098  0.000000
      ESP Fit Center  390 is at   2.580552 -1.925916  0.000000
      ESP Fit Center  391 is at   2.805646 -1.580111  0.000000
      ESP Fit Center  392 is at   2.984672 -1.208360  0.000000
      ESP Fit Center  393 is at   3.114689 -0.816768  0.000000
      ESP Fit Center  394 is at   3.193564 -0.411764  0.000000
      ESP Fit Center  395 is at   3.192452  0.000000 -0.420294
      ESP Fit Center  396 is at   3.165141  0.416699 -0.420294
      ESP Fit Center  397 is at   3.083672  0.826267 -0.420294
      ESP Fit Center  398 is at   2.949441  1.221699 -0.420294
      ESP Fit Center  399 is at   2.764745  1.596226 -0.420294
      ESP Fit Center  400 is at   2.532743  1.943442 -0.420294
      ESP Fit Center  401 is at   2.257405  2.257405 -0.420294
      ESP Fit Center  402 is at   1.943442  2.532743 -0.420294
      ESP Fit Center  403 is at   1.596226  2.764745 -0.420294
      ESP Fit Center  404 is at   1.221699  2.949441 -0.420294
      ESP Fit Center  405 is at   0.826267  3.083672 -0.420294
      ESP Fit Center  406 is at   0.416699  3.165141 -0.420294
      ESP Fit Center  407 is at   0.000000  3.192452 -0.420294
      ESP Fit Center  408 is at  -0.416699  3.165141 -0.420294
      ESP Fit Center  409 is at  -0.826267  3.083672 -0.420294
      ESP Fit Center  410 is at  -1.221699  2.949441 -0.420294
      ESP Fit Center  411 is at  -1.596226  2.764745 -0.420294
      ESP Fit Center  412 is at  -1.943442  2.532743 -0.420294
      ESP Fit Center  413 is at  -2.257405  2.257405 -0.420294
      ESP Fit Center  414 is at  -2.532743  1.943442 -0.420294
      ESP Fit Center  415 is at  -2.764745  1.596226 -0.420294
      ESP Fit Center  416 is at  -2.949441  1.221699 -0.420294
      ESP Fit Center  417 is at  -3.083672  0.826267 -0.420294
      ESP Fit Center  418 is at  -3.165141  0.416699 -0.420294
      ESP Fit Center  419 is at  -3.192452  0.000000 -0.420294
      ESP Fit Center  420 is at  -3.165141 -0.416699 -0.420294
      ESP Fit Center  421 is at  -3.083672 -0.826267 -0.420294
      ESP Fit Center  422 is at  -2.949441 -1.221699 -0.420294
      ESP Fit Center  423 is at  -2.764745 -1.596226 -0.420294
      ESP Fit Center  424 is at  -2.532743 -1.943442 -0.420294
      ESP Fit Center  425 is at  -2.257405 -2.257405 -0.420294
      ESP Fit Center  426 is at  -1.943442 -2.532743 -0.420294
      ESP Fit Center  427 is at  -1.596226 -2.764745 -0.420294
      ESP Fit Center  428 is at  -1.221699 -2.949441 -0.420294
      ESP Fit Center  429 is at  -0.826267 -3.083672 -0.420294
      ESP Fit Center  430 is at  -0.416699 -3.165141 -0.420294
      ESP Fit Center  431 is at  -0.000000 -3.192452 -0.420294
      ESP Fit Center  432 is at   0.416699 -3.165141 -0.420294
      ESP Fit Center  433 is at   0.826267 -3.083672 -0.420294
      ESP Fit Center  434 is at   1.221699 -2.949441 -0.420294
      ESP Fit Center  435 is at   1.596226 -2.764745 -0.420294
      ESP Fit Center  436 is at   1.943442 -2.532743 -0.420294
      ESP Fit Center  437 is at   2.257405 -2.257405 -0.420294
      ESP Fit Center  438 is at   2.532743 -1.943442 -0.420294
      ESP Fit Center  439 is at   2.764745 -1.596226 -0.420294
      ESP Fit Center  440 is at   2.949441 -1.221699 -0.420294
      ESP Fit Center  441 is at   3.083672 -0.826267 -0.420294
      ESP Fit Center  442 is at   3.165141 -0.416699 -0.420294
      ESP Fit Center  443 is at   3.110281  0.000000 -0.833397
      ESP Fit Center  444 is at   3.082530  0.414560 -0.833397
      ESP Fit Center  445 is at   2.999770  0.821722 -0.833397
      ESP Fit Center  446 is at   2.863480  1.214220 -0.833397
      ESP Fit Center  447 is at   2.676091  1.585051 -0.833397
      ESP Fit Center  448 is at   2.440947  1.927596 -0.833397
      ESP Fit Center  449 is at   2.162244  2.235744 -0.833397
      ESP Fit Center  450 is at   1.844956  2.503994 -0.833397
      ESP Fit Center  451 is at   1.494744  2.727561 -0.833397
      ESP Fit Center  452 is at   1.117859  2.902454 -0.833397
      ESP Fit Center  453 is at   0.721026  3.025553 -0.833397
      ESP Fit Center  454 is at   0.311326  3.094661 -0.833397
      ESP Fit Center  455 is at  -0.103930  3.108544 -0.833397
      ESP Fit Center  456 is at  -0.517331  3.066956 -0.833397
      ESP Fit Center  457 is at  -0.921500  2.970637 -0.833397
      ESP Fit Center  458 is at  -1.309225  2.821308 -0.833397
      ESP Fit Center  459 is at  -1.673587  2.621632 -0.833397
      ESP Fit Center  460 is at  -2.008084  2.375173 -0.833397
      ESP Fit Center  461 is at  -2.306747  2.086329 -0.833397
      ESP Fit Center  462 is at  -2.564245  1.760255 -0.833397
      ESP Fit Center  463 is at  -2.775985  1.402768 -0.833397
      ESP Fit Center  464 is at  -2.938186  1.020250 -0.833397
      ESP Fit Center  465 is at  -3.047956  0.619524 -0.833397
      ESP Fit Center  466 is at  -3.103336  0.207744 -0.833397
      ESP Fit Center  467 is at  -3.103336 -0.207744 -0.833397
      ESP Fit Center  468 is at  -3.047956 -0.619524 -0.833397
      ESP Fit Center  469 is at  -2.938186 -1.020250 -0.833397
      ESP Fit Center  470 is at  -2.775985 -1.402768 -0.833397
      ESP Fit Center  471 is at  -2.564245 -1.760255 -0.833397
      ESP Fit Center  472 is at  -2.306747 -2.086329 -0.833397
      ESP Fit Center  473 is at  -2.008084 -2.375173 -0.833397
      ESP Fit Center  474 is at  -1.673587 -2.621632 -0.833397
      ESP Fit Center  475 is at  -1.309225 -2.821308 -0.833397
      ESP Fit Center  476 is at  -0.921500 -2.970637 -0.833397
      ESP Fit Center  477 is at  -0.517331 -3.066956 -0.833397
      ESP Fit Center  478 is at  -0.103930 -3.108544 -0.833397
      ESP Fit Center  479 is at   0.311326 -3.094661 -0.833397
      ESP Fit Center  480 is at   0.721026 -3.025553 -0.833397
      ESP Fit Center  481 is at   1.117859 -2.902454 -0.833397
      ESP Fit Center  482 is at   1.494744 -2.727561 -0.833397
      ESP Fit Center  483 is at   1.844956 -2.503994 -0.833397
      ESP Fit Center  484 is at   2.162244 -2.235744 -0.833397
      ESP Fit Center  485 is at   2.440947 -1.927596 -0.833397
      ESP Fit Center  486 is at   2.676091 -1.585051 -0.833397
      ESP Fit Center  487 is at   2.863480 -1.214220 -0.833397
      ESP Fit Center  488 is at   2.999770 -0.821722 -0.833397
      ESP Fit Center  489 is at   3.082530 -0.414560 -0.833397
      ESP Fit Center  490 is at   2.974892  0.000000 -1.232241
      ESP Fit Center  491 is at   2.945941  0.414025 -1.232241
      ESP Fit Center  492 is at   2.859650  0.819991 -1.232241
[...]
 3971 Fit      -0.115003
 3972 Fit      -0.115003
 3973 Fit      -0.115003
 3974 Fit      -0.115003
 3975 Fit      -0.115003
 3976 Fit      -0.115003
 3977 Fit      -0.115003
 3978 Fit      -0.115003
 3979 Fit      -0.115003
 3980 Fit      -0.115003
 3981 Fit      -0.115003
 3982 Fit      -0.115003
 3983 Fit      -0.115003
 3984 Fit      -0.115003
 3985 Fit      -0.115003
 3986 Fit      -0.115003
 3987 Fit      -0.115003
 3988 Fit      -0.115003
 3989 Fit      -0.115003
 3990 Fit      -0.115003
 3991 Fit      -0.115003
 3992 Fit      -0.115003
 3993 Fit      -0.115003
 3994 Fit      -0.115003
 3995 Fit      -0.115003
 3996 Fit      -0.115003
 3997 Fit      -0.115003
 3998 Fit      -0.115003
 3999 Fit      -0.115003
 4000 Fit      -0.115003
 4001 Fit      -0.115003
 4002 Fit      -0.115003
 4003 Fit      -0.115003
 4004 Fit      -0.115003
 4005 Fit      -0.115003
 4006 Fit      -0.115003
 4007 Fit      -0.115003
 4008 Fit      -0.115003
 4009 Fit      -0.115003
 4010 Fit      -0.115003
 4011 Fit      -0.115003
 4012 Fit      -0.115003
 4013 Fit      -0.115003
 4014 Fit      -0.115003
 4015 Fit      -0.115003
 4016 Fit      -0.115003
 4017 Fit      -0.115003
 4018 Fit      -0.115003
 4019 Fit      -0.115003
 4020 Fit      -0.115003
 4021 Fit      -0.115003
 4022 Fit      -0.115003
 4023 Fit      -0.115003
 4024 Fit      -0.115003
 4025 Fit      -0.115003
 4026 Fit      -0.115003
 4027 Fit      -0.115003
 4028 Fit      -0.115003
 4029 Fit      -0.115003
 4030 Fit      -0.115003
 4031 Fit      -0.115003
 4032 Fit      -0.115003
 4033 Fit      -0.115003
 4034 Fit      -0.115003
 4035 Fit      -0.115003
 4036 Fit      -0.115003
 4037 Fit      -0.115003
 4038 Fit      -0.115003
 4039 Fit      -0.115003
 4040 Fit      -0.115003
 4041 Fit      -0.115003
 4042 Fit      -0.115003
 4043 Fit      -0.115003
 4044 Fit      -0.115003
 4045 Fit      -0.115003
 4046 Fit      -0.115003
 4047 Fit      -0.115003
 4048 Fit      -0.115003
 4049 Fit      -0.115003
 4050 Fit      -0.115003
 4051 Fit      -0.115003
 4052 Fit      -0.115003
 4053 Fit      -0.115003
 4054 Fit      -0.115003
 4055 Fit      -0.115003
 4056 Fit      -0.115003
 4057 Fit      -0.115003
 4058 Fit      -0.115003
 4059 Fit      -0.115003
 4060 Fit      -0.115003
 4061 Fit      -0.115003
 4062 Fit      -0.115003
 4063 Fit      -0.115003
 4064 Fit      -0.115003
 4065 Fit      -0.115003
 4066 Fit      -0.115003
 4067 Fit      -0.115003
 4068 Fit      -0.115003
 4069 Fit      -0.115003
 4070 Fit      -0.115003
 4071 Fit      -0.115003
 4072 Fit      -0.115003
 4073 Fit      -0.115003
 4074 Fit      -0.115003
 4075 Fit      -0.115003
 4076 Fit      -0.115003
 4077 Fit      -0.115003
 4078 Fit      -0.115003
 4079 Fit      -0.115003
 4080 Fit      -0.115003
 4081 Fit      -0.115003
 4082 Fit      -0.115003
 4083 Fit      -0.115003
 4084 Fit      -0.115003
 4085 Fit      -0.115003
 4086 Fit      -0.115003
 4087 Fit      -0.115003
 4088 Fit      -0.115003
 4089 Fit      -0.115003
 4090 Fit      -0.115003
 4091 Fit      -0.115003
 4092 Fit      -0.115003
 4093 Fit      -0.115003
 4094 Fit      -0.115003
 4095 Fit      -0.115003
 4096 Fit      -0.115003
 4097 Fit      -0.115003
 4098 Fit      -0.115003
 4099 Fit      -0.115003
 4100 Fit      -0.115003
 4101 Fit      -0.115003
 4102 Fit      -0.115003
 4103 Fit      -0.115003
 4104 Fit      -0.115003
 4105 Fit      -0.115003
 4106 Fit      -0.115003
 4107 Fit      -0.115003
 4108 Fit      -0.115003
 4109 Fit      -0.115003
 4110 Fit      -0.115003
 4111 Fit      -0.115003
 4112 Fit      -0.115003
 4113 Fit      -0.115003
 4114 Fit      -0.115003
 4115 Fit      -0.115003
 4116 Fit      -0.115003
 4117 Fit      -0.115003
 4118 Fit      -0.115003
 4119 Fit      -0.115003
 4120 Fit      -0.115003
 4121 Fit      -0.115003
 4122 Fit      -0.115003
 4123 Fit      -0.115003
 4124 Fit      -0.115003
 4125 Fit      -0.115003
 4126 Fit      -0.115003
 4127 Fit      -0.115003
 4128 Fit      -0.115003
 4129 Fit      -0.115003
 4130 Fit      -0.115003
 4131 Fit      -0.115003
 4132 Fit      -0.115003
 4133 Fit      -0.115003
 4134 Fit      -0.115003
 4135 Fit      -0.115003
 4136 Fit      -0.115003
 4137 Fit      -0.115003
 4138 Fit      -0.115003
 4139 Fit      -0.115003
 4140 Fit      -0.115003
 4141 Fit      -0.115003
 4142 Fit      -0.115003
 4143 Fit      -0.115003
 4144 Fit      -0.115003
 4145 Fit      -0.115003
 4146 Fit      -0.115003
 4147 Fit      -0.115003
 4148 Fit      -0.115003
 4149 Fit      -0.115003
 4150 Fit      -0.115003
 4151 Fit      -0.115003
 4152 Fit      -0.115003
 4153 Fit      -0.115003
 4154 Fit      -0.115003
 4155 Fit      -0.115003
 4156 Fit      -0.115003
 4157 Fit      -0.115003
 4158 Fit      -0.115003
 4159 Fit      -0.115003
 4160 Fit      -0.115003
 4161 Fit      -0.115003
 4162 Fit      -0.115003
 4163 Fit      -0.115003
 4164 Fit      -0.115003
 4165 Fit      -0.115003
 4166 Fit      -0.115003
 4167 Fit      -0.115003
 4168 Fit      -0.115003
 4169 Fit      -0.115003
 4170 Fit      -0.115003
 4171 Fit      -0.115003
 4172 Fit      -0.115003
 4173 Fit      -0.115003
 4174 Fit      -0.115003
 4175 Fit      -0.115003
 4176 Fit      -0.115003
 4177 Fit      -0.115003
 4178 Fit      -0.115003
 4179 Fit      -0.115003
 4180 Fit      -0.115003
 4181 Fit      -0.115003
 4182 Fit      -0.115003
 4183 Fit      -0.115003
 4184 Fit      -0.115003
 4185 Fit      -0.115003
 4186 Fit      -0.115003
 4187 Fit      -0.115003
 4188 Fit      -0.115003
 4189 Fit      -0.115003
 4190 Fit      -0.115003
 4191 Fit      -0.115003
 4192 Fit      -0.115003
 4193 Fit      -0.115003
 4194 Fit      -0.115003
 4195 Fit      -0.115003
 4196 Fit      -0.115003
 4197 Fit      -0.115003
 4198 Fit      -0.115003
 4199 Fit      -0.115003
 4200 Fit      -0.115003
 4201 Fit      -0.115003
 4202 Fit      -0.115003
 4203 Fit      -0.115003
 4204 Fit      -0.115003
 4205 Fit      -0.115003
 4206 Fit      -0.115003
 4207 Fit      -0.115003
 4208 Fit      -0.115003
 4209 Fit      -0.115003
 4210 Fit      -0.115003
 4211 Fit      -0.115003
 4212 Fit      -0.115003
 4213 Fit      -0.115003
 4214 Fit      -0.115003
 4215 Fit      -0.115003
 4216 Fit      -0.115003
 4217 Fit      -0.115003
 4218 Fit      -0.115003
 4219 Fit      -0.115003
 4220 Fit      -0.115003
 4221 Fit      -0.115003
 4222 Fit      -0.115003
 4223 Fit      -0.115003
 4224 Fit      -0.115003
 4225 Fit      -0.115003
 4226 Fit      -0.115003
 4227 Fit      -0.115003
 4228 Fit      -0.115003
 4229 Fit      -0.115003
 4230 Fit      -0.115003
 4231 Fit      -0.115003
 4232 Fit      -0.115003
 4233 Fit      -0.115003
 4234 Fit      -0.115003
 4235 Fit      -0.115003
 4236 Fit      -0.115003
 4237 Fit      -0.115003
 4238 Fit      -0.115003
 4239 Fit      -0.115003
 4240 Fit      -0.115003
 4241 Fit      -0.115003
 4242 Fit      -0.115003
 4243 Fit      -0.115003
 4244 Fit      -0.115003
 4245 Fit      -0.115003
 4246 Fit      -0.115003
 4247 Fit      -0.115003
 4248 Fit      -0.115003
 4249 Fit      -0.115003
 4250 Fit      -0.115003
 4251 Fit      -0.115003
 4252 Fit      -0.115003
 4253 Fit      -0.115003
 4254 Fit      -0.115003
 4255 Fit      -0.115003
 4256 Fit      -0.115003
 4257 Fit      -0.115003
 4258 Fit      -0.115003
 4259 Fit      -0.115003
 4260 Fit      -0.115003
 4261 Fit      -0.115003
 4262 Fit      -0.115003
 4263 Fit      -0.115003
 4264 Fit      -0.115003
 4265 Fit      -0.115003
 4266 Fit      -0.115003
 4267 Fit      -0.115003
 4268 Fit      -0.115003
 4269 Fit      -0.115003
 4270 Fit      -0.115003
 4271 Fit      -0.115003
 4272 Fit      -0.115003
 4273 Fit      -0.115003
 4274 Fit      -0.115003
 4275 Fit      -0.115003
 4276 Fit      -0.115003
 4277 Fit      -0.115003
 4278 Fit      -0.115003
 4279 Fit      -0.115003
 4280 Fit      -0.115003
 4281 Fit      -0.115003
 4282 Fit      -0.115003
 4283 Fit      -0.115003
 4284 Fit      -0.115003
 4285 Fit      -0.115003
 4286 Fit      -0.115003
 4287 Fit      -0.115003
 4288 Fit      -0.115003
 4289 Fit      -0.115003
 4290 Fit      -0.115003
 4291 Fit      -0.115003
 4292 Fit      -0.115003
 4293 Fit      -0.115003
 4294 Fit      -0.115003
 4295 Fit      -0.115003
 4296 Fit      -0.115003
 4297 Fit      -0.115003
 4298 Fit      -0.115003
 4299 Fit      -0.115003
 4300 Fit      -0.115003
 4301 Fit      -0.115003
 4302 Fit      -0.115003
 4303 Fit      -0.115003
 4304 Fit      -0.115003
 4305 Fit      -0.115003
 4306 Fit      -0.115003
 4307 Fit      -0.115003
 4308 Fit      -0.115003
 4309 Fit      -0.115003
 4310 Fit      -0.115003
 4311 Fit      -0.115003
 4312 Fit      -0.115003
 4313 Fit      -0.115003
 4314 Fit      -0.115003
 4315 Fit      -0.115003
 4316 Fit      -0.115003
 4317 Fit      -0.115003
 4318 Fit      -0.115003
 4319 Fit      -0.115003
 4320 Fit      -0.115003
 4321 Fit      -0.115003
 4322 Fit      -0.115003
 4323 Fit      -0.115003
 4324 Fit      -0.115003
 4325 Fit      -0.115003
 4326 Fit      -0.115003
 4327 Fit      -0.115003
 4328 Fit      -0.115003
 4329 Fit      -0.115003
 4330 Fit      -0.115003
 4331 Fit      -0.115003
 4332 Fit      -0.115003
 4333 Fit      -0.115003
 4334 Fit      -0.115003
 4335 Fit      -0.115003
 4336 Fit      -0.115003
 4337 Fit      -0.115003
 4338 Fit      -0.115003
 4339 Fit      -0.115003
 4340 Fit      -0.115003
 4341 Fit      -0.115003
 4342 Fit      -0.115003
 4343 Fit      -0.115003
 4344 Fit      -0.115003
 4345 Fit      -0.115003
 4346 Fit      -0.115003
 4347 Fit      -0.115003
 4348 Fit      -0.115003
 4349 Fit      -0.115003
 4350 Fit      -0.115003
 4351 Fit      -0.115003
 4352 Fit      -0.115003
 4353 Fit      -0.115003
 4354 Fit      -0.115003
 4355 Fit      -0.115003
 4356 Fit      -0.115003
 4357 Fit      -0.115003
 4358 Fit      -0.115003
 4359 Fit      -0.115003
 4360 Fit      -0.115003
 4361 Fit      -0.115003
 4362 Fit      -0.115003
 4363 Fit      -0.115003
 4364 Fit      -0.115003
 4365 Fit      -0.115003
 4366 Fit      -0.115003
 4367 Fit      -0.115003
 4368 Fit      -0.115003
 4369 Fit      -0.115003
 4370 Fit      -0.115003
 4371 Fit      -0.115003
 4372 Fit      -0.115003
 4373 Fit      -0.115003
 4374 Fit      -0.115003
 4375 Fit      -0.115003
 4376 Fit      -0.115003
 4377 Fit      -0.115003
 4378 Fit      -0.115003
 4379 Fit      -0.115003
 4380 Fit      -0.115003
 4381 Fit      -0.115003
 4382 Fit      -0.115003
 4383 Fit      -0.115003
 4384 Fit      -0.115003
 4385 Fit      -0.115003
 4386 Fit      -0.115003
 4387 Fit      -0.115003
 4388 Fit      -0.115003
 4389 Fit      -0.115003
 4390 Fit      -0.115003
 4391 Fit      -0.115003
 4392 Fit      -0.115003
 4393 Fit      -0.115003
 4394 Fit      -0.115003
 4395 Fit      -0.115003
 4396 Fit      -0.115003
 4397 Fit      -0.115003
 4398 Fit      -0.115003
 4399 Fit      -0.115003
 4400 Fit      -0.115003
 4401 Fit      -0.115003
 4402 Fit      -0.115003
 4403 Fit      -0.115003
 4404 Fit      -0.115003
 4405 Fit      -0.115003
 4406 Fit      -0.115003
 4407 Fit      -0.115003
 4408 Fit      -0.115003
 4409 Fit      -0.115003
 4410 Fit      -0.115003
 4411 Fit      -0.115003
 4412 Fit      -0.115003
 4413 Fit      -0.115003
 4414 Fit      -0.115003
 4415 Fit      -0.115003
 4416 Fit      -0.115003
 4417 Fit      -0.115003
 4418 Fit      -0.115003
 4419 Fit      -0.115003
 4420 Fit      -0.115003
 4421 Fit      -0.115003
 4422 Fit      -0.115003
 4423 Fit      -0.115003
 4424 Fit      -0.115003
 4425 Fit      -0.115003
 4426 Fit      -0.115003
 4427 Fit      -0.115003
 4428 Fit      -0.115003
 4429 Fit      -0.115003
 4430 Fit      -0.115003
 4431 Fit      -0.115003
 4432 Fit      -0.115003
 4433 Fit      -0.115003
 4434 Fit      -0.115003
 4435 Fit      -0.115003
 4436 Fit      -0.115003
 4437 Fit      -0.115003
 4438 Fit      -0.115003
 4439 Fit      -0.115003
 4440 Fit      -0.115003
 4441 Fit      -0.115003
 4442 Fit      -0.115003
 4443 Fit      -0.115003
 4444 Fit      -0.115003
 4445 Fit      -0.115003
 4446 Fit      -0.115003
 4447 Fit      -0.115003
 4448 Fit      -0.115003
 4449 Fit      -0.115003
 4450 Fit      -0.115003
 4451 Fit      -0.115003
 4452 Fit      -0.115003
 4453 Fit      -0.115003
 4454 Fit      -0.115003
 4455 Fit      -0.115003
 4456 Fit      -0.115003
 4457 Fit      -0.115003
 4458 Fit      -0.115003
 4459 Fit      -0.115003
 4460 Fit      -0.115003
 4461 Fit      -0.115003
 4462 Fit      -0.115003
 4463 Fit      -0.115003
 4464 Fit      -0.115003
 4465 Fit      -0.115003
 4466 Fit      -0.115003
 4467 Fit      -0.115003
 4468 Fit      -0.115003
 4469 Fit      -0.115003
 4470 Fit      -0.115003
 4471 Fit      -0.115003
 4472 Fit      -0.115003
 4473 Fit      -0.115003
 4474 Fit      -0.115003
 4475 Fit      -0.115003
 4476 Fit      -0.115003
 4477 Fit      -0.115003
 4478 Fit      -0.115003
 4479 Fit      -0.115003
 4480 Fit      -0.115003
 4481 Fit      -0.115003
 4482 Fit      -0.115003
 4483 Fit      -0.115003
 4484 Fit      -0.115003
 4485 Fit      -0.115003
 4486 Fit      -0.115003
 4487 Fit      -0.115003
 4488 Fit      -0.115003
 4489 Fit      -0.115003
 4490 Fit      -0.115003
 4491 Fit      -0.115003
 4492 Fit      -0.115003
 -----------------------------------------------------------------
 Leave Link  602 at Tue Sep 30 16:58:57 2025, MaxMem=  4294967296 cpu:               2.4 elap:               0.2
 (Enter /software/sse/easybuild/prefix/software/Gaussian/16.C.01-avx2-nsc1/g16/l701.exe)
 ... and contract with generalized density number  2.
 Compute integral first derivatives.
 Leave Link  701 at Tue Sep 30 16:58:57 2025, MaxMem=  4294967296 cpu:               2.2 elap:               0.2
 (Enter /software/sse/easybuild/prefix/software/Gaussian/16.C.01-avx2-nsc1/g16/l702.exe)
 L702 exits ... SP integral derivatives will be done elsewhere.
 Leave Link  702 at Tue Sep 30 16:58:57 2025, MaxMem=  4294967296 cpu:               0.5 elap:               0.1
 (Enter /software/sse/easybuild/prefix/software/Gaussian/16.C.01-avx2-nsc1/g16/l703.exe)
 Integral derivatives from FoFJK, PRISM(SPDF).
 Compute integral first derivatives, UseDBF=F ICtDFT=           0.
 Calling FoFJK, ICntrl=  10002127 FMM=F ISym2X=1 I1Cent= 0 IOpClX= 0 NMat=1 NMatS=1 NMatT=0.
 FoFJK:  IHMeth= 1 ICntrl=10002127 DoSepK=F KAlg= 0 I1Cent=           0 FoldK=F
 IRaf=         0 NMat=       1 IRICut=       1 DoRegI=T DoRafI=F ISym2E= 1 IDoP0=0 IntGTp=1.
 FoFCou: FMM=F IPFlag=           0 FMFlag=      100000 FMFlg1=         800
         NFxFlg=           0 DoJE=F BraDBF=F KetDBF=F FulRan=T
         wScrn=  0.000000 ICntrl=  10002127 IOpCl=  0 I1Cent=           0 NGrid=           0
         NMat0=    1 NMatS0=      1 NMatT0=    0 NMatD0=    1 NMtDS0=    0 NMtDT0=    0
 Petite list used in FoFCou.
 Leave Link  703 at Tue Sep 30 16:58:58 2025, MaxMem=  4294967296 cpu:              11.2 elap:               0.7
 (Enter /software/sse/easybuild/prefix/software/Gaussian/16.C.01-avx2-nsc1/g16/l716.exe)
 Dipole        = 0.00000000D+00 0.00000000D+00 0.00000000D+00
 ***** Axes restored to original set *****
 -------------------------------------------------------------------
 Center     Atomic                   Forces (Hartrees/Bohr)
 Number     Number              X              Y              Z
 -------------------------------------------------------------------
      1       35          -0.000000000   -0.000000000   -0.000000000
 -------------------------------------------------------------------
 Cartesian Forces:  Max     0.000000000 RMS     0.000000000
 Z-matrix is all fixed cartesians, so copy forces.
 Leave Link  716 at Tue Sep 30 16:58:58 2025, MaxMem=  4294967296 cpu:               0.7 elap:               0.1
 (Enter /software/sse/easybuild/prefix/software/Gaussian/16.C.01-avx2-nsc1/g16/l103.exe)

 GradGradGradGradGradGradGradGradGradGradGradGradGradGradGradGradGradGrad
 Berny optimization.
 Search for a local minimum.
 Step number   1 out of a maximum of   20
 All quantities printed in internal units (Hartrees-Bohrs-Radians)
 RMS Force = .00000D+00 SwitMx=.10000D-02 MixMth= 2
 Mixed Optimization -- En-DIIS/RFO-DIIS
 Second derivative matrix not updated -- first step.
 The second derivative matrix:
                          X1        Y1        Z1
           X1           0.00000
           Y1           0.00000   0.00000
           Z1           0.00000   0.00000   0.00000
 ITU=  0
     Eigenvalues --- 
 RFO step:  Lambda=-5.96046448D-09 EMin= 0.00000000D+00
 ClnCor:  largest displacement from symmetrization is 0.00D+00 for atom     0.
 Linear search not attempted -- first point.
 ClnCor:  largest displacement from symmetrization is 0.00D+00 for atom     0.
 B after Tr=     0.000000    0.000000    0.000000
         Rot=    1.000000    0.000000    0.000000    0.000000 Ang=   0.00 deg.
 Variable       Old X    -DE/DX   Delta X   Delta X   Delta X     New X
                                 (Linear)    (Quad)   (Total)
    X1        0.00000  -0.00000   0.00000   0.00000   0.00000   0.00000
    Y1        0.00000  -0.00000   0.00000   0.00000   0.00000   0.00000
    Z1        0.00000  -0.00000   0.00000   0.00000   0.00000   0.00000
         Item               Value     Threshold  Converged?
 Maximum Force            0.000000     0.000015     YES
 RMS     Force            0.000000     0.000010     YES
 Maximum Displacement     0.000000     0.000060     YES
 RMS     Displacement     0.000000     0.000040     YES
 Predicted change in Energy=-0.000000D+00
 Optimization completed.
    -- Stationary point found.
 Lowest energy point so far.  Saving SCF results.
 Largest change from initial coordinates is atom    0       0.000 Angstoms.
 GradGradGradGradGradGradGradGradGradGradGradGradGradGradGradGradGradGrad

 Leave Link  103 at Tue Sep 30 16:58:58 2025, MaxMem=  4294967296 cpu:               0.8 elap:               0.1
 (Enter /software/sse/easybuild/prefix/software/Gaussian/16.C.01-avx2-nsc1/g16/l202.exe)
                          Input orientation:                          
 ---------------------------------------------------------------------
 Center     Atomic      Atomic             Coordinates (Angstroms)
 Number     Number       Type             X           Y           Z
 ---------------------------------------------------------------------
      1         35           0        0.000000    0.000000    0.000000
 ---------------------------------------------------------------------
 Stoichiometry    Br(1-)
 Framework group  OH[O(Br)]
 Deg. of freedom     0
 Full point group                 OH      NOp  48
 RotChk:  IX=0 Diff= 0.00D+00
 Largest Abelian subgroup         D2H     NOp   8
 Largest concise Abelian subgroup C1      NOp   1
                         Standard orientation:                         
 ---------------------------------------------------------------------
 Center     Atomic      Atomic             Coordinates (Angstroms)
 Number     Number       Type             X           Y           Z
 ---------------------------------------------------------------------
      1         35           0        0.000000    0.000000    0.000000
 ---------------------------------------------------------------------
 Leave Link  202 at Tue Sep 30 16:58:58 2025, MaxMem=  4294967296 cpu:               0.3 elap:               0.0
 (Enter /software/sse/easybuild/prefix/software/Gaussian/16.C.01-avx2-nsc1/g16/l9999.exe)

 Test job not archived.
 1\1\NSC-N1100\FOpt\RMP2-FC\Aug-CC-pVTZ\Br1(1-)\X_DAVVA\30-Sep-2025\0\\
 #P MP2/aug-cc-pvtz Opt=tight density=MP2 Pop=(MK,Hirshfeld) iop(6/33=2
 ) iop(6/42=6) maxdisk=128GB\\bromide\\-1,1\Br,0.,0.,0.\\Version=ES64L-
 G16RevC.01\State=1-A1G\HF=-2572.5336777\MP2=-2572.7748313\RMSD=3.103e-
 09\RMSF=0.000e+00\Dipole=0.,0.,0.\Quadrupole=0.,0.,0.,0.,0.,0.\PG=OH [
 O(Br1)]\\@


 IF THERE IS ONE WAY BETTER THAN ANOTHER IT IS THE WAY OF NATURE.

                          -- ARISTOTLE
 Job cpu time:       0 days  0 hours  1 minutes 14.4 seconds.
 Elapsed time:       0 days  0 hours  0 minutes  5.2 seconds.
 File lengths (MBytes):  RWF=      6 Int=      0 D2E=      0 Chk=      8 Scr=      1
 Normal termination of Gaussian 16 at Tue Sep 30 16:58:58 2025.
