 Entering Gaussian System, Link 0=/software/sse/easybuild/prefix/software/Gaussian/16.C.01-avx2-nsc1/g16/g16.orig
 Input=butanoate.wrap
 Output=butanoate.log
 Initial command:
 /software/sse/easybuild/prefix/software/Gaussian/16.C.01-avx2-nsc1/g16/l1.exe "/scratch/local/Gau-2032058.inp" -scrdir="/scratch/local/"
 Entering Link 1 = /software/sse/easybuild/prefix/software/Gaussian/16.C.01-avx2-nsc1/g16/l1.exe PID=   2032059.
  
 Copyright (c) 1988-2019, Gaussian, Inc.  All Rights Reserved.
  
 This is part of the Gaussian(R) 16 program.  It is based on
 the Gaussian(R) 09 system (copyright 2009, Gaussian, Inc.),
 the Gaussian(R) 03 system (copyright 2003, Gaussian, Inc.),
 the Gaussian(R) 98 system (copyright 1998, Gaussian, Inc.),
 the Gaussian(R) 94 system (copyright 1995, Gaussian, Inc.),
 the Gaussian 92(TM) system (copyright 1992, Gaussian, Inc.),
 the Gaussian 90(TM) system (copyright 1990, Gaussian, Inc.),
 the Gaussian 88(TM) system (copyright 1988, Gaussian, Inc.),
 the Gaussian 86(TM) system (copyright 1986, Carnegie Mellon
 University), and the Gaussian 82(TM) system (copyright 1983,
 Carnegie Mellon University). Gaussian is a federally registered
 trademark of Gaussian, Inc.
  
 This software contains proprietary and confidential information,
 including trade secrets, belonging to Gaussian, Inc.
  
 This software is provided under written license and may be
 used, copied, transmitted, or stored only in accord with that
 written license.
  
 The following legend is applicable only to US Government
 contracts under FAR:
  
                    RESTRICTED RIGHTS LEGEND
  
 Use, reproduction and disclosure by the US Government is
 subject to restrictions as set forth in subparagraphs (a)
 and (c) of the Commercial Computer Software - Restricted
 Rights clause in FAR 52.227-19.
  
 Gaussian, Inc.
 340 Quinnipiac St., Bldg. 40, Wallingford CT 06492
  
  
 ---------------------------------------------------------------
 Warning -- This program may not be used in any manner that
 competes with the business of Gaussian, Inc. or will provide
 assistance to any competitor of Gaussian, Inc.  The licensee
 of this program is prohibited from giving any competitor of
 Gaussian, Inc. access to this program.  By using this program,
 the user acknowledges that Gaussian, Inc. is engaged in the
 business of creating and licensing software in the field of
 computational chemistry and represents and warrants to the
 licensee that it is not a competitor of Gaussian, Inc. and that
 it will not use this program in any manner prohibited above.
 ---------------------------------------------------------------
  

 Cite this work as:
 Gaussian 16, Revision C.01,
 M. J. Frisch, G. W. Trucks, H. B. Schlegel, G. E. Scuseria, 
 M. A. Robb, J. R. Cheeseman, G. Scalmani, V. Barone, 
 G. A. Petersson, H. Nakatsuji, X. Li, M. Caricato, A. V. Marenich, 
 J. Bloino, B. G. Janesko, R. Gomperts, B. Mennucci, H. P. Hratchian, 
 J. V. Ortiz, A. F. Izmaylov, J. L. Sonnenberg, D. Williams-Young, 
 F. Ding, F. Lipparini, F. Egidi, J. Goings, B. Peng, A. Petrone, 
 T. Henderson, D. Ranasinghe, V. G. Zakrzewski, J. Gao, N. Rega, 
 G. Zheng, W. Liang, M. Hada, M. Ehara, K. Toyota, R. Fukuda, 
 J. Hasegawa, M. Ishida, T. Nakajima, Y. Honda, O. Kitao, H. Nakai, 
 T. Vreven, K. Throssell, J. A. Montgomery, Jr., J. E. Peralta, 
 F. Ogliaro, M. J. Bearpark, J. J. Heyd, E. N. Brothers, K. N. Kudin, 
 V. N. Staroverov, T. A. Keith, R. Kobayashi, J. Normand, 
 K. Raghavachari, A. P. Rendell, J. C. Burant, S. S. Iyengar, 
 J. Tomasi, M. Cossi, J. M. Millam, M. Klene, C. Adamo, R. Cammi, 
 J. W. Ochterski, R. L. Martin, K. Morokuma, O. Farkas, 
 J. B. Foresman, and D. J. Fox, Gaussian, Inc., Wallingford CT, 2019.
 
 ******************************************
 Gaussian 16:  ES64L-G16RevC.01  3-Jul-2019
                30-Sep-2025 
 ******************************************
 %mem=12000MB
 %nprocshared=16
 Will use up to   16 processors via shared memory.
 %mem=32Gb
 %chk=butanoate.chk
 ----------------------------------------------------------------------
 #P HF/aug-cc-pvtz Opt=tight Pop=(MK,Hirshfeld) iop(6/33=2) iop(6/42=6)
  maxdisk=128GB
 ----------------------------------------------------------------------
 1/7=10,18=20,19=15,38=1/1,3;
 2/9=110,12=2,17=6,18=5,40=1/2;
 3/5=16,6=1,7=10,11=9,25=1,30=1,71=1/1,2,3;
 4//1;
 5/5=2,38=5/2;
 6/7=2,8=2,9=2,10=2,15=8,20=1,28=1,33=2,42=6,79=1/1,2;
 7//1,2,3,16;
 1/7=10,18=20,19=15/3(2);
 2/9=110/2;
 99//99;
 2/9=110/2;
 3/5=16,6=1,7=10,11=9,25=1,30=1,71=1/1,2,3;
 4/5=5,16=3,69=1/1;
 5/5=2,38=5/2;
 7//1,2,3,16;
 1/7=10,18=20,19=15/3(-5);
 2/9=110/2;
 6/7=2,8=2,9=2,10=2,15=8,19=2,20=1,28=1,33=2,42=6,79=1/1,2;
 99/9=1/99;
 Leave Link    1 at Tue Sep 30 16:58:49 2025, MaxMem=  4294967296 cpu:               0.9 elap:               0.1
 (Enter /software/sse/easybuild/prefix/software/Gaussian/16.C.01-avx2-nsc1/g16/l101.exe)
 ---------
 butanoate
 ---------
 Symbolic Z-matrix:
 Charge = -1 Multiplicity = 1
 C                     0.14692  -0.56976   0.00004 
 C                    -1.29168   0.00921   0. 
 O                    -1.39838   1.23574   0.00003 
 O                    -2.18334  -0.84156  -0.00003 
 C                     1.27723   0.4501   -0.00005 
 H                     0.22953  -1.22197   0.86679 
 H                     0.22953  -1.22211  -0.8666 
 H                     1.17471   1.09734   0.8637 
 H                     1.17471   1.09719  -0.86391 
 C                     2.6638   -0.19256   0.00001 
 H                     2.80747  -0.82075   0.87534 
 H                     3.45272   0.55581  -0.00006 
 H                     2.80747  -0.82091  -0.87521 
 
 ITRead=  0  0  0  0  0  0  0  0  0  0  0  0  0
 MicOpt= -1 -1 -1 -1 -1 -1 -1 -1 -1 -1 -1 -1 -1
 NAtoms=     13 NQM=       13 NQMF=       0 NMMI=      0 NMMIF=      0
                NMic=       0 NMicF=      0.
                    Isotopes and Nuclear Properties:
 (Nuclear quadrupole moments (NQMom) in fm**2, nuclear magnetic moments (NMagM)
  in nuclear magnetons)

  Atom         1           2           3           4           5           6           7           8           9          10
 IAtWgt=          12          12          16          16          12           1           1           1           1          12
 AtmWgt=  12.0000000  12.0000000  15.9949146  15.9949146  12.0000000   1.0078250   1.0078250   1.0078250   1.0078250  12.0000000
 NucSpn=           0           0           0           0           0           1           1           1           1           0
 AtZEff=  -0.0000000  -0.0000000  -0.0000000  -0.0000000  -0.0000000  -0.0000000  -0.0000000  -0.0000000  -0.0000000  -0.0000000
 NQMom=    0.0000000   0.0000000   0.0000000   0.0000000   0.0000000   0.0000000   0.0000000   0.0000000   0.0000000   0.0000000
 NMagM=    0.0000000   0.0000000   0.0000000   0.0000000   0.0000000   2.7928460   2.7928460   2.7928460   2.7928460   0.0000000
 AtZNuc=   6.0000000   6.0000000   8.0000000   8.0000000   6.0000000   1.0000000   1.0000000   1.0000000   1.0000000   6.0000000

  Atom        11          12          13
 IAtWgt=           1           1           1
 AtmWgt=   1.0078250   1.0078250   1.0078250
 NucSpn=           1           1           1
 AtZEff=  -0.0000000  -0.0000000  -0.0000000
 NQMom=    0.0000000   0.0000000   0.0000000
 NMagM=    2.7928460   2.7928460   2.7928460
 AtZNuc=   1.0000000   1.0000000   1.0000000
 Leave Link  101 at Tue Sep 30 16:58:50 2025, MaxMem=  4294967296 cpu:               5.1 elap:               0.3
 (Enter /software/sse/easybuild/prefix/software/Gaussian/16.C.01-avx2-nsc1/g16/l103.exe)

 GradGradGradGradGradGradGradGradGradGradGradGradGradGradGradGradGradGrad
 Berny optimization.
 Initialization pass.
                           ----------------------------
                           !    Initial Parameters    !
                           ! (Angstroms and Degrees)  !
 --------------------------                            --------------------------
 ! Name  Definition              Value          Derivative Info.                !
 --------------------------------------------------------------------------------
 ! R1    R(1,2)                  1.5507         estimate D2E/DX2                !
 ! R2    R(1,5)                  1.5224         estimate D2E/DX2                !
 ! R3    R(1,6)                  1.0879         estimate D2E/DX2                !
 ! R4    R(1,7)                  1.0879         estimate D2E/DX2                !
 ! R5    R(2,3)                  1.2312         estimate D2E/DX2                !
 ! R6    R(2,4)                  1.2324         estimate D2E/DX2                !
 ! R7    R(5,8)                  1.0842         estimate D2E/DX2                !
 ! R8    R(5,9)                  1.0842         estimate D2E/DX2                !
 ! R9    R(5,10)                 1.5283         estimate D2E/DX2                !
 ! R10   R(10,11)                1.087          estimate D2E/DX2                !
 ! R11   R(10,12)                1.0874         estimate D2E/DX2                !
 ! R12   R(10,13)                1.087          estimate D2E/DX2                !
 ! A1    A(2,1,5)              116.0181         estimate D2E/DX2                !
 ! A2    A(2,1,6)              107.1157         estimate D2E/DX2                !
 ! A3    A(2,1,7)              107.1162         estimate D2E/DX2                !
 ! A4    A(5,1,6)              110.1997         estimate D2E/DX2                !
 ! A5    A(5,1,7)              110.1993         estimate D2E/DX2                !
 ! A6    A(6,1,7)              105.6308         estimate D2E/DX2                !
 ! A7    A(1,2,3)              116.8943         estimate D2E/DX2                !
 ! A8    A(1,2,4)              114.4218         estimate D2E/DX2                !
 ! A9    A(3,2,4)              128.6838         estimate D2E/DX2                !
 ! A10   A(1,5,8)              109.2482         estimate D2E/DX2                !
 ! A11   A(1,5,9)              109.2484         estimate D2E/DX2                !
 ! A12   A(1,5,10)             113.0734         estimate D2E/DX2                !
 ! A13   A(8,5,9)              105.6361         estimate D2E/DX2                !
 ! A14   A(8,5,10)             109.6819         estimate D2E/DX2                !
 ! A15   A(9,5,10)             109.6822         estimate D2E/DX2                !
 ! A16   A(5,10,11)            111.2837         estimate D2E/DX2                !
 ! A17   A(5,10,12)            111.6438         estimate D2E/DX2                !
 ! A18   A(5,10,13)            111.2835         estimate D2E/DX2                !
 ! A19   A(11,10,12)           107.5719         estimate D2E/DX2                !
 ! A20   A(11,10,13)           107.2696         estimate D2E/DX2                !
 ! A21   A(12,10,13)           107.5717         estimate D2E/DX2                !
 ! D1    D(5,1,2,3)             -0.0068         estimate D2E/DX2                !
 ! D2    D(5,1,2,4)            179.9946         estimate D2E/DX2                !
 ! D3    D(6,1,2,3)            123.5217         estimate D2E/DX2                !
 ! D4    D(6,1,2,4)            -56.4769         estimate D2E/DX2                !
 ! D5    D(7,1,2,3)           -123.5351         estimate D2E/DX2                !
 ! D6    D(7,1,2,4)             56.4663         estimate D2E/DX2                !
 ! D7    D(2,1,5,8)             57.5534         estimate D2E/DX2                !
 ! D8    D(2,1,5,9)            -57.5541         estimate D2E/DX2                !
 ! D9    D(2,1,5,10)           179.9994         estimate D2E/DX2                !
 ! D10   D(6,1,5,8)            -64.3539         estimate D2E/DX2                !
 ! D11   D(6,1,5,9)           -179.4614         estimate D2E/DX2                !
 ! D12   D(6,1,5,10)            58.0921         estimate D2E/DX2                !
 ! D13   D(7,1,5,8)            179.461          estimate D2E/DX2                !
 ! D14   D(7,1,5,9)             64.3535         estimate D2E/DX2                !
 ! D15   D(7,1,5,10)           -58.093          estimate D2E/DX2                !
 ! D16   D(1,5,10,11)          -59.7911         estimate D2E/DX2                !
 ! D17   D(1,5,10,12)          179.9998         estimate D2E/DX2                !
 ! D18   D(1,5,10,13)           59.7911         estimate D2E/DX2                !
 ! D19   D(8,5,10,11)           62.4127         estimate D2E/DX2                !
 ! D20   D(8,5,10,12)          -57.7964         estimate D2E/DX2                !
 ! D21   D(8,5,10,13)         -178.0051         estimate D2E/DX2                !
 ! D22   D(9,5,10,11)          178.0047         estimate D2E/DX2                !
 ! D23   D(9,5,10,12)           57.7956         estimate D2E/DX2                !
 ! D24   D(9,5,10,13)          -62.4131         estimate D2E/DX2                !
 --------------------------------------------------------------------------------
 Trust Radius=3.00D-01 FncErr=1.00D-07 GrdErr=1.00D-07 EigMax=2.50D+02 EigMin=1.00D-04
 Number of steps in this run=     67 maximum allowed number of steps=    100.
 GradGradGradGradGradGradGradGradGradGradGradGradGradGradGradGradGradGrad

 Leave Link  103 at Tue Sep 30 16:58:50 2025, MaxMem=  4294967296 cpu:               0.2 elap:               0.0
 (Enter /software/sse/easybuild/prefix/software/Gaussian/16.C.01-avx2-nsc1/g16/l202.exe)
                          Input orientation:                          
 ---------------------------------------------------------------------
 Center     Atomic      Atomic             Coordinates (Angstroms)
 Number     Number       Type             X           Y           Z
 ---------------------------------------------------------------------
      1          6           0        0.146920   -0.569760    0.000040
      2          6           0       -1.291680    0.009210    0.000000
      3          8           0       -1.398380    1.235740    0.000030
      4          8           0       -2.183340   -0.841560   -0.000030
      5          6           0        1.277230    0.450100   -0.000050
      6          1           0        0.229530   -1.221970    0.866790
      7          1           0        0.229530   -1.222110   -0.866600
      8          1           0        1.174710    1.097340    0.863700
      9          1           0        1.174710    1.097190   -0.863910
     10          6           0        2.663800   -0.192560    0.000010
     11          1           0        2.807470   -0.820750    0.875340
     12          1           0        3.452720    0.555810   -0.000060
     13          1           0        2.807470   -0.820910   -0.875210
 ---------------------------------------------------------------------
                    Distance matrix (angstroms):
                    1          2          3          4          5
     1  C    0.000000
     2  C    1.550734   0.000000
     3  O    2.376506   1.231162   0.000000
     4  O    2.346058   1.232423   2.220661   0.000000
     5  C    1.522404   2.606469   2.788569   3.693769   0.000000
     6  H    1.087868   2.140376   3.072735   2.591916   2.155204
     7  H    1.087865   2.140379   3.072811   2.591853   2.155196
     8  H    2.140440   2.830739   2.717696   3.972639   1.084202
     9  H    2.140440   2.830746   2.717790   3.972599   1.084200
    10  C    2.544988   3.960623   4.305966   4.890395   1.528263
    11  H    2.812058   4.272948   4.762824   5.067040   2.173247
    12  H    3.492166   4.775783   4.898518   5.806704   2.178057
    13  H    2.812057   4.272952   4.762880   5.067006   2.173248
                    6          7          8          9         10
     6  H    0.000000
     7  H    1.733390   0.000000
     8  H    2.504511   3.044200   0.000000
     9  H    3.044206   2.504501   1.727610   0.000000
    10  C    2.781486   2.781485   2.151091   2.151093   0.000000
    11  H    2.608989   3.137072   2.518950   3.060946   1.086953
    12  H    3.781651   3.781646   2.495729   2.495728   1.087406
    13  H    3.137067   2.608986   3.060947   2.518956   1.086957
                   11         12         13
    11  H    0.000000
    12  H    1.754306   0.000000
    13  H    1.750550   1.754307   0.000000
 Stoichiometry    C4H7O2(1-)
 Framework group  C1[X(C4H7O2)]
 Deg. of freedom    33
 Full point group                 C1      NOp   1
 Largest Abelian subgroup         C1      NOp   1
 Largest concise Abelian subgroup C1      NOp   1
                         Standard orientation:                         
 ---------------------------------------------------------------------
 Center     Atomic      Atomic             Coordinates (Angstroms)
 Number     Number       Type             X           Y           Z
 ---------------------------------------------------------------------
      1          6           0        0.146919   -0.569760    0.000039
      2          6           0       -1.291680    0.009212   -0.000001
      3          8           0       -1.398379    1.235742    0.000029
      4          8           0       -2.183341   -0.841557   -0.000031
      5          6           0        1.277230    0.450099   -0.000051
      6          1           0        0.229529   -1.221970    0.866789
      7          1           0        0.229529   -1.222110   -0.866601
      8          1           0        1.174711    1.097339    0.863699
      9          1           0        1.174711    1.097189   -0.863911
     10          6           0        2.663800   -0.192562    0.000009
     11          1           0        2.807469   -0.820752    0.875339
     12          1           0        3.452721    0.555807   -0.000061
     13          1           0        2.807469   -0.820912   -0.875211
 ---------------------------------------------------------------------
 Rotational constants (GHZ):           9.3293641           1.8978111           1.6232280
 Leave Link  202 at Tue Sep 30 16:58:50 2025, MaxMem=  4294967296 cpu:               0.1 elap:               0.0
 (Enter /software/sse/easybuild/prefix/software/Gaussian/16.C.01-avx2-nsc1/g16/l301.exe)
 Standard basis: Aug-CC-pVTZ (5D, 7F)
 Ernie: Thresh=  0.10000D-02 Tol=  0.10000D-05 Strict=F.
 Ernie:  18 primitive shells out of 257 were deleted.
 There are   505 symmetry adapted cartesian basis functions of A   symmetry.
 There are   437 symmetry adapted basis functions of A   symmetry.
   437 basis functions,   621 primitive gaussians,   505 cartesian basis functions
    24 alpha electrons       24 beta electrons
       nuclear repulsion energy       229.2771285328 Hartrees.
 IExCor=    0 DFT=F Ex=HF Corr=None ExCW=0 ScaHFX=  1.000000
 ScaDFX=  1.000000  1.000000  1.000000  1.000000 ScalE2=  1.000000  1.000000
 IRadAn=      5 IRanWt=     -1 IRanGd=            0 ICorTp=0 IEmpDi=  4
 NAtoms=   13 NActive=   13 NUniq=   13 SFac= 1.00D+00 NAtFMM=   60 NAOKFM=F Big=F
 Integral buffers will be    131072 words long.
 Raffenetti 1 integral format.
 Two-electron integral symmetry is turned on.
 Leave Link  301 at Tue Sep 30 16:58:51 2025, MaxMem=  4294967296 cpu:               0.8 elap:               0.1
 (Enter /software/sse/easybuild/prefix/software/Gaussian/16.C.01-avx2-nsc1/g16/l302.exe)
 NPDir=0 NMtPBC=     1 NCelOv=     1 NCel=       1 NClECP=     1 NCelD=      1
         NCelK=      1 NCelE2=     1 NClLst=     1 CellRange=     0.0.
 One-electron integrals computed using PRISM.
 One-electron integral symmetry used in STVInt
 NBasis=   437 RedAO= T EigKep=  1.05D-05  NBF=   437
 NBsUse=   437 1.00D-06 EigRej= -1.00D+00 NBFU=   437
 Leave Link  302 at Tue Sep 30 16:58:51 2025, MaxMem=  4294967296 cpu:               4.0 elap:               0.3
 (Enter /software/sse/easybuild/prefix/software/Gaussian/16.C.01-avx2-nsc1/g16/l303.exe)
 DipDrv:  MaxL=1.
 Leave Link  303 at Tue Sep 30 16:58:52 2025, MaxMem=  4294967296 cpu:               0.7 elap:               0.1
 (Enter /software/sse/easybuild/prefix/software/Gaussian/16.C.01-avx2-nsc1/g16/l401.exe)
 ExpMin= 2.53D-02 ExpMax= 1.53D+04 ExpMxC= 5.22D+02 IAcc=3 IRadAn=         5 AccDes= 0.00D+00
 Harris functional with IExCor=  205 and IRadAn=       5 diagonalized for initial guess.
 HarFok:  IExCor=  205 AccDes= 0.00D+00 IRadAn=         5 IDoV= 1 UseB2=F ITyADJ=14
 ICtDFT=  3500011 ScaDFX=  1.000000  1.000000  1.000000  1.000000
 FoFCou: FMM=F IPFlag=           0 FMFlag=      100000 FMFlg1=           0
         NFxFlg=           0 DoJE=T BraDBF=F KetDBF=T FulRan=T
         wScrn=  0.000000 ICntrl=       500 IOpCl=  0 I1Cent=   200000004 NGrid=           0
         NMat0=    1 NMatS0=      1 NMatT0=    0 NMatD0=    1 NMtDS0=    0 NMtDT0=    0
 Petite list used in FoFCou.
 Harris En= -306.074330186626    
 JPrj=0 DoOrth=F DoCkMO=F.
 Leave Link  401 at Tue Sep 30 16:58:53 2025, MaxMem=  4294967296 cpu:               9.7 elap:               0.6
 (Enter /software/sse/easybuild/prefix/software/Gaussian/16.C.01-avx2-nsc1/g16/l502.exe)
 Integral symmetry usage will be decided dynamically.
 Closed shell SCF:
 Using DIIS extrapolation, IDIIS=  1040.
 NGot=  4294967296 LenX=  4294444684 LenY=  4294189154
 Requested convergence on RMS density matrix=1.00D-08 within 128 cycles.
 Requested convergence on MAX density matrix=1.00D-06.
 Requested convergence on             energy=1.00D-06.
 No special actions if energy rises.
 Fock matrices will be formed incrementally for  20 cycles.

 Cycle   1  Pass 1  IDiag  1:
 FoFJK:  IHMeth= 1 ICntrl=       0 DoSepK=F KAlg= 0 I1Cent=           0 FoldK=F
 IRaf= 980000000 NMat=       1 IRICut=       1 DoRegI=T DoRafI=F ISym2E= 0 IDoP0=0 IntGTp=1.
 FoFCou: FMM=F IPFlag=           0 FMFlag=      100000 FMFlg1=           0
         NFxFlg=           0 DoJE=F BraDBF=F KetDBF=F FulRan=T
         wScrn=  0.000000 ICntrl=         0 IOpCl=  0 I1Cent=           0 NGrid=           0
         NMat0=    1 NMatS0=      1 NMatT0=    0 NMatD0=    1 NMtDS0=    0 NMtDT0=    0
 Symmetry not used in FoFCou.
 E= -304.999583055396    
 DIIS: error= 3.97D-02 at cycle   1 NSaved=   1.
 NSaved= 1 IEnMin= 1 EnMin= -304.999583055396     IErMin= 1 ErrMin= 3.97D-02
 ErrMax= 3.97D-02  0.00D+00 EMaxC= 1.00D-01 BMatC= 7.80D-01 BMatP= 7.80D-01
 IDIUse=3 WtCom= 6.03D-01 WtEn= 3.97D-01
 Coeff-Com:  0.100D+01
 Coeff-En:   0.100D+01
 Coeff:      0.100D+01
 Gap=     0.583 Goal=   None    Shift=    0.000
 GapD=    0.583 DampG=2.000 DampE=0.500 DampFc=1.0000 IDamp=-1.
 RMSDP=2.20D-03 MaxDP=9.33D-02              OVMax= 1.47D-01

 Cycle   2  Pass 1  IDiag  1:
 RMSU=  2.14D-03    CP:  9.31D-01
 E= -305.336493505771     Delta-E=       -0.336910450376 Rises=F Damp=F
 DIIS: error= 1.75D-02 at cycle   2 NSaved=   2.
 NSaved= 2 IEnMin= 2 EnMin= -305.336493505771     IErMin= 2 ErrMin= 1.75D-02
 ErrMax= 1.75D-02  0.00D+00 EMaxC= 1.00D-01 BMatC= 1.23D-01 BMatP= 7.80D-01
 IDIUse=3 WtCom= 8.25D-01 WtEn= 1.75D-01
 Coeff-Com:  0.231D+00 0.769D+00
 Coeff-En:   0.000D+00 0.100D+01
 Coeff:      0.191D+00 0.809D+00
 Gap=     0.325 Goal=   None    Shift=    0.000
 RMSDP=1.05D-03 MaxDP=5.74D-02 DE=-3.37D-01 OVMax= 6.86D-02

 Cycle   3  Pass 1  IDiag  1:
 RMSU=  8.77D-04    CP:  9.52D-01  7.43D-01
 E= -305.420349802866     Delta-E=       -0.083856297094 Rises=F Damp=F
 DIIS: error= 6.59D-03 at cycle   3 NSaved=   3.
 NSaved= 3 IEnMin= 3 EnMin= -305.420349802866     IErMin= 3 ErrMin= 6.59D-03
 ErrMax= 6.59D-03  0.00D+00 EMaxC= 1.00D-01 BMatC= 1.07D-02 BMatP= 1.23D-01
 IDIUse=3 WtCom= 9.34D-01 WtEn= 6.59D-02
 Coeff-Com: -0.216D-01 0.193D+00 0.828D+00
 Coeff-En:   0.000D+00 0.000D+00 0.100D+01
 Coeff:     -0.202D-01 0.181D+00 0.840D+00
 Gap=     0.298 Goal=   None    Shift=    0.000
 RMSDP=1.61D-04 MaxDP=6.71D-03 DE=-8.39D-02 OVMax= 1.66D-02

 Cycle   4  Pass 1  IDiag  1:
 RMSU=  1.45D-04    CP:  9.50D-01  7.73D-01  9.95D-01
 E= -305.427221176071     Delta-E=       -0.006871373205 Rises=F Damp=F
 DIIS: error= 1.21D-03 at cycle   4 NSaved=   4.
 NSaved= 4 IEnMin= 4 EnMin= -305.427221176071     IErMin= 4 ErrMin= 1.21D-03
 ErrMax= 1.21D-03  0.00D+00 EMaxC= 1.00D-01 BMatC= 3.89D-04 BMatP= 1.07D-02
 IDIUse=3 WtCom= 9.88D-01 WtEn= 1.21D-02
 Coeff-Com: -0.101D-01 0.328D-01 0.233D+00 0.744D+00
 Coeff-En:   0.000D+00 0.000D+00 0.000D+00 0.100D+01
 Coeff:     -0.994D-02 0.324D-01 0.231D+00 0.747D+00
 Gap=     0.298 Goal=   None    Shift=    0.000
 RMSDP=5.01D-05 MaxDP=3.02D-03 DE=-6.87D-03 OVMax= 4.21D-03

 Cycle   5  Pass 1  IDiag  1:
 RMSU=  4.16D-05    CP:  9.50D-01  7.66D-01  1.02D+00  1.07D+00
 E= -305.427579734999     Delta-E=       -0.000358558929 Rises=F Damp=F
 DIIS: error= 3.02D-04 at cycle   5 NSaved=   5.
 NSaved= 5 IEnMin= 5 EnMin= -305.427579734999     IErMin= 5 ErrMin= 3.02D-04
 ErrMax= 3.02D-04  0.00D+00 EMaxC= 1.00D-01 BMatC= 2.92D-05 BMatP= 3.89D-04
 IDIUse=3 WtCom= 9.97D-01 WtEn= 3.02D-03
 Coeff-Com:  0.250D-02-0.213D-01-0.103D+00 0.999D-02 0.111D+01
 Coeff-En:   0.000D+00 0.000D+00 0.000D+00 0.000D+00 0.100D+01
 Coeff:      0.249D-02-0.212D-01-0.103D+00 0.996D-02 0.111D+01
 Gap=     0.297 Goal=   None    Shift=    0.000
 RMSDP=3.87D-05 MaxDP=2.82D-03 DE=-3.59D-04 OVMax= 2.32D-03

 Cycle   6  Pass 1  IDiag  1:
 RMSU=  1.36D-05    CP:  9.50D-01  7.58D-01  1.04D+00  1.23D+00  1.31D+00
 E= -305.427627074774     Delta-E=       -0.000047339775 Rises=F Damp=F
 DIIS: error= 6.60D-05 at cycle   6 NSaved=   6.
 NSaved= 6 IEnMin= 6 EnMin= -305.427627074774     IErMin= 6 ErrMin= 6.60D-05
 ErrMax= 6.60D-05  0.00D+00 EMaxC= 1.00D-01 BMatC= 1.17D-06 BMatP= 2.92D-05
 IDIUse=1 WtCom= 1.00D+00 WtEn= 0.00D+00
 Coeff-Com:  0.835D-03-0.451D-02-0.235D-01-0.385D-01 0.821D-01 0.984D+00
 Coeff:      0.835D-03-0.451D-02-0.235D-01-0.385D-01 0.821D-01 0.984D+00
 Gap=     0.297 Goal=   None    Shift=    0.000
 RMSDP=8.31D-06 MaxDP=5.63D-04 DE=-4.73D-05 OVMax= 6.15D-04

 Cycle   7  Pass 1  IDiag  1:
 RMSU=  2.89D-06    CP:  9.50D-01  7.56D-01  1.04D+00  1.26D+00  1.39D+00
                    CP:  1.17D+00
 E= -305.427629325744     Delta-E=       -0.000002250969 Rises=F Damp=F
 DIIS: error= 1.55D-05 at cycle   7 NSaved=   7.
 NSaved= 7 IEnMin= 7 EnMin= -305.427629325744     IErMin= 7 ErrMin= 1.55D-05
 ErrMax= 1.55D-05  0.00D+00 EMaxC= 1.00D-01 BMatC= 1.45D-07 BMatP= 1.17D-06
 IDIUse=1 WtCom= 1.00D+00 WtEn= 0.00D+00
 Coeff-Com:  0.514D-05 0.555D-03 0.276D-02-0.849D-02-0.680D-01 0.221D+00
 Coeff-Com:  0.853D+00
 Coeff:      0.514D-05 0.555D-03 0.276D-02-0.849D-02-0.680D-01 0.221D+00
 Coeff:      0.853D+00
 Gap=     0.297 Goal=   None    Shift=    0.000
 RMSDP=1.80D-06 MaxDP=1.15D-04 DE=-2.25D-06 OVMax= 1.86D-04

 Cycle   8  Pass 1  IDiag  1:
 RMSU=  8.66D-07    CP:  9.50D-01  7.56D-01  1.04D+00  1.26D+00  1.41D+00
                    CP:  1.23D+00  1.17D+00
 E= -305.427629514337     Delta-E=       -0.000000188594 Rises=F Damp=F
 DIIS: error= 5.22D-06 at cycle   8 NSaved=   8.
 NSaved= 8 IEnMin= 8 EnMin= -305.427629514337     IErMin= 8 ErrMin= 5.22D-06
 ErrMax= 5.22D-06  0.00D+00 EMaxC= 1.00D-01 BMatC= 1.75D-08 BMatP= 1.45D-07
 IDIUse=1 WtCom= 1.00D+00 WtEn= 0.00D+00
 Coeff-Com: -0.837D-04 0.618D-03 0.306D-02 0.205D-02-0.248D-01-0.465D-01
 Coeff-Com:  0.185D+00 0.880D+00
 Coeff:     -0.837D-04 0.618D-03 0.306D-02 0.205D-02-0.248D-01-0.465D-01
 Coeff:      0.185D+00 0.880D+00
 Gap=     0.297 Goal=   None    Shift=    0.000
 RMSDP=6.33D-07 MaxDP=3.89D-05 DE=-1.89D-07 OVMax= 7.28D-05

 Cycle   9  Pass 1  IDiag  1:
 RMSU=  3.49D-07    CP:  9.50D-01  7.56D-01  1.04D+00  1.26D+00  1.41D+00
                    CP:  1.25D+00  1.29D+00  1.23D+00
 E= -305.427629537403     Delta-E=       -0.000000023066 Rises=F Damp=F
 DIIS: error= 2.33D-06 at cycle   9 NSaved=   9.
 NSaved= 9 IEnMin= 9 EnMin= -305.427629537403     IErMin= 9 ErrMin= 2.33D-06
 ErrMax= 2.33D-06  0.00D+00 EMaxC= 1.00D-01 BMatC= 2.05D-09 BMatP= 1.75D-08
 IDIUse=1 WtCom= 1.00D+00 WtEn= 0.00D+00
 Coeff-Com: -0.250D-04 0.104D-03 0.446D-03 0.181D-02 0.251D-02-0.410D-01
 Coeff-Com: -0.720D-01 0.184D+00 0.924D+00
 Coeff:     -0.250D-04 0.104D-03 0.446D-03 0.181D-02 0.251D-02-0.410D-01
 Coeff:     -0.720D-01 0.184D+00 0.924D+00
 Gap=     0.297 Goal=   None    Shift=    0.000
 RMSDP=2.51D-07 MaxDP=1.27D-05 DE=-2.31D-08 OVMax= 3.03D-05

 Cycle  10  Pass 1  IDiag  1:
 RMSU=  1.09D-07    CP:  9.50D-01  7.56D-01  1.04D+00  1.26D+00  1.41D+00
                    CP:  1.26D+00  1.33D+00  1.38D+00  1.27D+00
 E= -305.427629541066     Delta-E=       -0.000000003663 Rises=F Damp=F
 DIIS: error= 5.08D-07 at cycle  10 NSaved=  10.
 NSaved=10 IEnMin=10 EnMin= -305.427629541066     IErMin=10 ErrMin= 5.08D-07
 ErrMax= 5.08D-07  0.00D+00 EMaxC= 1.00D-01 BMatC= 1.45D-10 BMatP= 2.05D-09
 IDIUse=1 WtCom= 1.00D+00 WtEn= 0.00D+00
 Coeff-Com:  0.803D-05-0.547D-04-0.290D-03-0.257D-03 0.176D-02 0.718D-02
 Coeff-Com: -0.766D-02-0.110D+00-0.535D-01 0.116D+01
 Coeff:      0.803D-05-0.547D-04-0.290D-03-0.257D-03 0.176D-02 0.718D-02
 Coeff:     -0.766D-02-0.110D+00-0.535D-01 0.116D+01
 Gap=     0.297 Goal=   None    Shift=    0.000
 RMSDP=9.32D-08 MaxDP=5.24D-06 DE=-3.66D-09 OVMax= 1.03D-05

 Cycle  11  Pass 1  IDiag  1:
 RMSU=  3.48D-08    CP:  9.50D-01  7.56D-01  1.04D+00  1.26D+00  1.41D+00
                    CP:  1.26D+00  1.34D+00  1.41D+00  1.45D+00  1.34D+00
 E= -305.427629541417     Delta-E=       -0.000000000351 Rises=F Damp=F
 DIIS: error= 1.83D-07 at cycle  11 NSaved=  11.
 NSaved=11 IEnMin=11 EnMin= -305.427629541417     IErMin=11 ErrMin= 1.83D-07
 ErrMax= 1.83D-07  0.00D+00 EMaxC= 1.00D-01 BMatC= 8.67D-12 BMatP= 1.45D-10
 IDIUse=1 WtCom= 1.00D+00 WtEn= 0.00D+00
 Coeff-Com:  0.355D-06 0.148D-05 0.182D-04-0.772D-04-0.493D-03 0.161D-02
 Coeff-Com:  0.771D-02-0.193D-02-0.503D-01-0.142D+00 0.119D+01
 Coeff:      0.355D-06 0.148D-05 0.182D-04-0.772D-04-0.493D-03 0.161D-02
 Coeff:      0.771D-02-0.193D-02-0.503D-01-0.142D+00 0.119D+01
 Gap=     0.297 Goal=   None    Shift=    0.000
 RMSDP=2.10D-08 MaxDP=9.49D-07 DE=-3.51D-10 OVMax= 2.83D-06

 Cycle  12  Pass 1  IDiag  1:
 RMSU=  9.90D-09    CP:  9.50D-01  7.56D-01  1.04D+00  1.26D+00  1.41D+00
                    CP:  1.26D+00  1.34D+00  1.41D+00  1.48D+00  1.42D+00
                    CP:  1.34D+00
 E= -305.427629541446     Delta-E=       -0.000000000029 Rises=F Damp=F
 DIIS: error= 7.45D-08 at cycle  12 NSaved=  12.
 NSaved=12 IEnMin=12 EnMin= -305.427629541446     IErMin=12 ErrMin= 7.45D-08
 ErrMax= 7.45D-08  0.00D+00 EMaxC= 1.00D-01 BMatC= 1.19D-12 BMatP= 8.67D-12
 IDIUse=1 WtCom= 1.00D+00 WtEn= 0.00D+00
 Coeff-Com: -0.540D-06 0.380D-05 0.187D-04 0.245D-04-0.611D-04-0.819D-03
 Coeff-Com:  0.315D-03 0.742D-02 0.121D-01-0.901D-01-0.714D-01 0.114D+01
 Coeff:     -0.540D-06 0.380D-05 0.187D-04 0.245D-04-0.611D-04-0.819D-03
 Coeff:      0.315D-03 0.742D-02 0.121D-01-0.901D-01-0.714D-01 0.114D+01
 Gap=     0.297 Goal=   None    Shift=    0.000
 RMSDP=6.64D-09 MaxDP=3.72D-07 DE=-2.85D-11 OVMax= 1.13D-06

 SCF Done:  E(RHF) =  -305.427629541     A.U. after   12 cycles
            NFock= 12  Conv=0.66D-08     -V/T= 2.0005
 KE= 3.052807106498D+02 PE=-1.186342302984D+03 EE= 3.463568342602D+02
 Leave Link  502 at Tue Sep 30 17:00:14 2025, MaxMem=  4294967296 cpu:            1288.3 elap:              81.0
 (Enter /software/sse/easybuild/prefix/software/Gaussian/16.C.01-avx2-nsc1/g16/l601.exe)
 Copying SCF densities to generalized density rwf, IOpCl= 0 IROHF=0.
 SCF density gives NOpUse=  1 NOpAll=  1.

 **********************************************************************

            Population analysis using the SCF Density.

 **********************************************************************

 Orbital symmetries:
 BldTbl:  Degeneracy threshold= 1.00D-02
       Occupied  (A) (A) (A) (A) (A) (A) (A) (A) (A) (A) (A) (A)
                 (A) (A) (A) (A) (A) (A) (A) (A) (A) (A) (A) (A)
       Virtual   (A) (A) (A) (A) (A) (A) (A) (A) (A) (A) (A) (A)
                 (A) (A) (A) (A) (A) (A) (A) (A) (A) (A) (A) (A)
                 (A) (A) (A) (A) (A) (A) (A) (A) (A) (A) (A) (A)
                 (A) (A) (A) (A) (A) (A) (A) (A) (A) (A) (A) (A)
                 (A) (A) (A) (A) (A) (A) (A) (A) (A) (A) (A) (A)
                 (A) (A) (A) (A) (A) (A) (A) (A) (A) (A) (A) (A)
                 (A) (A) (A) (A) (A) (A) (A) (A) (A) (A) (A) (A)
                 (A) (A) (A) (A) (A) (A) (A) (A) (A) (A) (A) (A)
                 (A) (A) (A) (A) (A) (A) (A) (A) (A) (A) (A) (A)
                 (A) (A) (A) (A) (A) (A) (A) (A) (A) (A) (A) (A)
                 (A) (A) (A) (A) (A) (A) (A) (A) (A) (A) (A) (A)
                 (A) (A) (A) (A) (A) (A) (A) (A) (A) (A) (A) (A)
                 (A) (A) (A) (A) (A) (A) (A) (A) (A) (A) (A) (A)
                 (A) (A) (A) (A) (A) (A) (A) (A) (A) (A) (A) (A)
                 (A) (A) (A) (A) (A) (A) (A) (A) (A) (A) (A) (A)
                 (A) (A) (A) (A) (A) (A) (A) (A) (A) (A) (A) (A)
                 (A) (A) (A) (A) (A) (A) (A) (A) (A) (A) (A) (A)
                 (A) (A) (A) (A) (A) (A) (A) (A) (A) (A) (A) (A)
                 (A) (A) (A) (A) (A) (A) (A) (A) (A) (A) (A) (A)
                 (A) (A) (A) (A) (A) (A) (A) (A) (A) (A) (A) (A)
                 (A) (A) (A) (A) (A) (A) (A) (A) (A) (A) (A) (A)
                 (A) (A) (A) (A) (A) (A) (A) (A) (A) (A) (A) (A)
                 (A) (A) (A) (A) (A) (A) (A) (A) (A) (A) (A) (A)
                 (A) (A) (A) (A) (A) (A) (A) (A) (A) (A) (A) (A)
                 (A) (A) (A) (A) (A) (A) (A) (A) (A) (A) (A) (A)
                 (A) (A) (A) (A) (A) (A) (A) (A) (A) (A) (A) (A)
                 (A) (A) (A) (A) (A) (A) (A) (A) (A) (A) (A) (A)
                 (A) (A) (A) (A) (A) (A) (A) (A) (A) (A) (A) (A)
                 (A) (A) (A) (A) (A) (A) (A) (A) (A) (A) (A) (A)
                 (A) (A) (A) (A) (A) (A) (A) (A) (A) (A) (A) (A)
                 (A) (A) (A) (A) (A) (A) (A) (A) (A) (A) (A) (A)
                 (A) (A) (A) (A) (A) (A) (A) (A) (A) (A) (A) (A)
                 (A) (A) (A) (A) (A) (A) (A) (A) (A) (A) (A) (A)
                 (A) (A) (A) (A) (A) (A) (A) (A) (A) (A) (A) (A)
                 (A) (A) (A) (A) (A)
 The electronic state is 1-A.
 Alpha  occ. eigenvalues --  -20.28602 -20.28145 -11.12223 -11.08961 -11.06844
 Alpha  occ. eigenvalues --  -11.04687  -1.17885  -1.07374  -0.91513  -0.79459
 Alpha  occ. eigenvalues --   -0.66959  -0.51895  -0.49130  -0.45409  -0.42731
 Alpha  occ. eigenvalues --   -0.41347  -0.39927  -0.36439  -0.34945  -0.32858
 Alpha  occ. eigenvalues --   -0.31239  -0.20556  -0.19196  -0.19073
 Alpha virt. eigenvalues --    0.10630   0.12209   0.12496   0.14353   0.14998
 Alpha virt. eigenvalues --    0.15311   0.15773   0.19140   0.19494   0.20764
 Alpha virt. eigenvalues --    0.21931   0.23043   0.23507   0.23957   0.24283
 Alpha virt. eigenvalues --    0.25261   0.26419   0.26682   0.27856   0.27904
 Alpha virt. eigenvalues --    0.31108   0.31610   0.33077   0.33353   0.35333
 Alpha virt. eigenvalues --    0.35529   0.35970   0.36039   0.38530   0.38884
 Alpha virt. eigenvalues --    0.40111   0.40971   0.42017   0.42210   0.42868
 Alpha virt. eigenvalues --    0.43852   0.45200   0.45899   0.46515   0.46687
 Alpha virt. eigenvalues --    0.47340   0.47906   0.48560   0.50171   0.50513
 Alpha virt. eigenvalues --    0.50580   0.50945   0.52419   0.52446   0.53000
 Alpha virt. eigenvalues --    0.53060   0.55704   0.55942   0.56975   0.56977
 Alpha virt. eigenvalues --    0.57989   0.58813   0.59151   0.60118   0.61174
 Alpha virt. eigenvalues --    0.61752   0.62672   0.62814   0.63906   0.64126
 Alpha virt. eigenvalues --    0.64510   0.66043   0.66109   0.69551   0.69818
 Alpha virt. eigenvalues --    0.70297   0.70343   0.71032   0.72315   0.74954
 Alpha virt. eigenvalues --    0.75042   0.75923   0.78015   0.79184   0.81625
 Alpha virt. eigenvalues --    0.82381   0.83706   0.86405   0.87613   0.88526
 Alpha virt. eigenvalues --    0.90839   0.91664   0.92877   0.92980   0.95600
 Alpha virt. eigenvalues --    0.95816   0.96613   0.97127   0.97722   0.98779
 Alpha virt. eigenvalues --    0.99758   0.99881   1.00388   1.02146   1.02937
 Alpha virt. eigenvalues --    1.02973   1.05660   1.05854   1.05972   1.07114
 Alpha virt. eigenvalues --    1.07209   1.07666   1.09607   1.09719   1.10415
 Alpha virt. eigenvalues --    1.12002   1.12668   1.13731   1.14539   1.15076
 Alpha virt. eigenvalues --    1.15780   1.18661   1.19466   1.19942   1.20774
 Alpha virt. eigenvalues --    1.22908   1.23867   1.23910   1.24720   1.26054
 Alpha virt. eigenvalues --    1.26595   1.27402   1.29591   1.29623   1.30919
 Alpha virt. eigenvalues --    1.31765   1.31891   1.33748   1.34419   1.35051
 Alpha virt. eigenvalues --    1.36263   1.36778   1.36879   1.38317   1.38950
 Alpha virt. eigenvalues --    1.40287   1.40318   1.41946   1.43749   1.45812
 Alpha virt. eigenvalues --    1.47458   1.47689   1.48749   1.50650   1.53216
 Alpha virt. eigenvalues --    1.55143   1.56995   1.58739   1.59076   1.60156
 Alpha virt. eigenvalues --    1.61272   1.63152   1.66068   1.67299   1.69665
 Alpha virt. eigenvalues --    1.69730   1.70862   1.72698   1.73795   1.74128
 Alpha virt. eigenvalues --    1.74740   1.76615   1.76685   1.78900   1.79962
 Alpha virt. eigenvalues --    1.80236   1.81934   1.82167   1.83894   1.84921
 Alpha virt. eigenvalues --    1.85772   1.87230   1.89450   1.90055   1.90374
 Alpha virt. eigenvalues --    1.91374   1.93659   1.93807   1.95559   1.97893
 Alpha virt. eigenvalues --    1.98167   1.99967   2.00837   2.02824   2.03451
 Alpha virt. eigenvalues --    2.05300   2.07328   2.08404   2.09436   2.12499
 Alpha virt. eigenvalues --    2.12620   2.12823   2.14524   2.15936   2.17048
 Alpha virt. eigenvalues --    2.20020   2.21226   2.25367   2.26578   2.28538
 Alpha virt. eigenvalues --    2.28912   2.34288   2.35483   2.36897   2.39515
 Alpha virt. eigenvalues --    2.39644   2.41031   2.42520   2.45261   2.45275
 Alpha virt. eigenvalues --    2.48004   2.50653   2.51158   2.53205   2.54556
 Alpha virt. eigenvalues --    2.59090   2.59478   2.59484   2.64528   2.65468
 Alpha virt. eigenvalues --    2.66413   2.68409   2.70772   2.72258   2.74458
 Alpha virt. eigenvalues --    2.77782   2.80489   2.82470   2.86705   2.88093
 Alpha virt. eigenvalues --    2.88723   2.90695   2.93500   2.95568   2.99629
 Alpha virt. eigenvalues --    3.03018   3.08112   3.08989   3.10408   3.17629
 Alpha virt. eigenvalues --    3.18027   3.25122   3.26606   3.31323   3.33415
 Alpha virt. eigenvalues --    3.33737   3.36900   3.43500   3.48654   3.51307
 Alpha virt. eigenvalues --    3.52638   3.54619   3.55922   3.61331   3.62857
 Alpha virt. eigenvalues --    3.65798   3.66748   3.70643   3.72457   3.73287
 Alpha virt. eigenvalues --    3.74241   3.76940   3.78450   3.80202   3.83985
 Alpha virt. eigenvalues --    3.84777   3.87704   3.88482   3.90137   3.92349
 Alpha virt. eigenvalues --    3.93741   3.94266   3.97122   3.98764   3.99703
 Alpha virt. eigenvalues --    4.03088   4.03688   4.04191   4.05050   4.07308
 Alpha virt. eigenvalues --    4.09617   4.10682   4.12490   4.14394   4.14959
 Alpha virt. eigenvalues --    4.17583   4.19061   4.20890   4.22692   4.25776
 Alpha virt. eigenvalues --    4.31970   4.31979   4.32230   4.35112   4.36615
 Alpha virt. eigenvalues --    4.37693   4.40312   4.40700   4.42704   4.45358
 Alpha virt. eigenvalues --    4.46495   4.47256   4.51502   4.53444   4.55107
 Alpha virt. eigenvalues --    4.55594   4.63340   4.67776   4.69207   4.71557
 Alpha virt. eigenvalues --    4.71953   4.73643   4.79051   4.82533   4.83129
 Alpha virt. eigenvalues --    4.84274   4.87744   4.88564   4.92803   4.93155
 Alpha virt. eigenvalues --    4.97431   4.98185   5.00843   5.02584   5.04932
 Alpha virt. eigenvalues --    5.05469   5.08286   5.13240   5.14516   5.18753
 Alpha virt. eigenvalues --    5.23905   5.24955   5.26342   5.28837   5.28956
 Alpha virt. eigenvalues --    5.31472   5.34049   5.36582   5.36780   5.42453
 Alpha virt. eigenvalues --    5.45660   5.46814   5.49994   5.52350   5.56163
 Alpha virt. eigenvalues --    5.56249   5.58472   5.58840   5.66567   5.67309
 Alpha virt. eigenvalues --    5.74643   5.75596   5.77864   5.80080   5.81638
 Alpha virt. eigenvalues --    5.85014   5.88002   5.93000   5.94661   6.00347
 Alpha virt. eigenvalues --    6.08864   6.15110   6.16369   6.26676   6.28831
 Alpha virt. eigenvalues --    6.30188   6.33866   6.36357   6.42536   6.42970
 Alpha virt. eigenvalues --    6.47894   6.59666   6.66211   6.69124   6.88847
 Alpha virt. eigenvalues --    6.91703   6.93227   6.95160   6.95883   6.99751
 Alpha virt. eigenvalues --    7.03882   7.09133   7.18292   7.18942   7.21294
 Alpha virt. eigenvalues --    7.29867   7.34574   7.44312   7.50361   7.55615
 Alpha virt. eigenvalues --    7.62389   7.63856   7.66983   7.73969   7.87027
 Alpha virt. eigenvalues --    7.91062   7.95604   7.98750   8.10205   8.18133
 Alpha virt. eigenvalues --    8.21854   8.30872  15.07150  16.19925  17.52156
 Alpha virt. eigenvalues --   18.09198  18.88795  19.89193
          Condensed to atoms (all electrons):
               1          2          3          4          5          6
     1  C    5.321898   0.096685  -0.084131  -0.125037   0.134976   0.386681
     2  C    0.096685   4.919909   0.355237   0.394676  -0.029677  -0.025534
     3  O   -0.084131   0.355237   8.725212  -0.172887   0.000476   0.000199
     4  O   -0.125037   0.394676  -0.172887   8.731893  -0.017415   0.026931
     5  C    0.134976  -0.029677   0.000476  -0.017415   5.436623  -0.008925
     6  H    0.386681  -0.025534   0.000199   0.026931  -0.008925   0.398369
     7  H    0.386666  -0.025515   0.000190   0.026937  -0.008943   0.016337
     8  H    0.012477  -0.014307   0.012847   0.002736   0.397023  -0.000561
     9  H    0.012469  -0.014315   0.012866   0.002737   0.397041   0.004464
    10  C    0.016644  -0.013578  -0.023435  -0.007692   0.016724  -0.009857
    11  H   -0.006931   0.004609  -0.001435  -0.000496   0.020083  -0.008920
    12  H    0.001045  -0.003243  -0.000084  -0.000081  -0.035847   0.000957
    13  H   -0.006929   0.004610  -0.001436  -0.000496   0.020078  -0.004600
               7          8          9         10         11         12
     1  C    0.386666   0.012477   0.012469   0.016644  -0.006931   0.001045
     2  C   -0.025515  -0.014307  -0.014315  -0.013578   0.004609  -0.003243
     3  O    0.000190   0.012847   0.012866  -0.023435  -0.001435  -0.000084
     4  O    0.026937   0.002736   0.002737  -0.007692  -0.000496  -0.000081
     5  C   -0.008943   0.397023   0.397041   0.016724   0.020083  -0.035847
     6  H    0.016337  -0.000561   0.004464  -0.009857  -0.008920   0.000957
     7  H    0.398388   0.004466  -0.000570  -0.009852  -0.004601   0.000957
     8  H    0.004466   0.333089   0.008589  -0.003189  -0.001253   0.000576
     9  H   -0.000570   0.008589   0.333090  -0.003195  -0.001549   0.000577
    10  C   -0.009852  -0.003189  -0.003195   5.736311   0.392220   0.450602
    11  H   -0.004601  -0.001253  -0.001549   0.392220   0.316294   0.002995
    12  H    0.000957   0.000576   0.000577   0.450602   0.002995   0.316398
    13  H   -0.008919  -0.001548  -0.001253   0.392223   0.024756   0.002995
              13
     1  C   -0.006929
     2  C    0.004610
     3  O   -0.001436
     4  O   -0.000496
     5  C    0.020078
     6  H   -0.004600
     7  H   -0.008919
     8  H   -0.001548
     9  H   -0.001253
    10  C    0.392223
    11  H    0.024756
    12  H    0.002995
    13  H    0.316293
 Mulliken charges:
               1
     1  C   -0.146514
     2  C    0.350443
     3  O   -0.823618
     4  O   -0.861805
     5  C   -0.322215
     6  H    0.224459
     7  H    0.224459
     8  H    0.249055
     9  H    0.249052
    10  C   -0.933925
    11  H    0.264227
    12  H    0.262154
    13  H    0.264227
 Sum of Mulliken charges =  -1.00000
 Mulliken charges with hydrogens summed into heavy atoms:
               1
     1  C    0.302404
     2  C    0.350443
     3  O   -0.823618
     4  O   -0.861805
     5  C    0.175892
    10  C   -0.143316
 DipInt: DoE/N= T F RetVal/Mat= T F Init=T NMatP=  1 IDeriv=0 Min/MaxMlt=  0  4
 Entering OneElI...
 OneElI was handed  4294318234 working-precision words.
 Multipole integrals L=0 to 4 MinM= 0 MaxM= 0.
 Requested accuracy = 0.1000D-12
 ShPair: Thresh= 1.00D-13 NBox=     0 BxSize= 0.00D+00 RnKept= 1.10D+01
         NSMCal=                10878 NSMKep=               10670
 PrmmSu-InSpLW:  IPartL=    0 NPrtUS=    1 NPrtUL=    1 DoSpLW=F IThBeg=    0 IThEnd=    0 NThAct=    1.
 PrSmSu:  IncTry=   512 NBBP=          10670 NTPThr=   100 NPartT=    1 Incr=         106 LDynOK=F GPUOK=F.
 PrsmSu:  NPrtUS=   1 ThrOK=F IAlg=2 LenDen=           0 ISkipM=0 DoSpLW=F IThBeg=    0 IThEnd=    0.
 Prism:   IPart=     0 DynPar=F LinDyn=F Incr=         106.
 PRISM was handed  4293584269 working-precision words and 10670 shell-pairs
 IPart=  0 NShTot=       10670 NBatch=         105 AvBLen=       101.6
 PrsmSu-ThDecC:  IPartSL=    0    0 NPrtUSL=    1    1 IThBeg=    0 IThEnd=    0 CPU=   -1 GPU=   -1 NThAct=    1.
 PrSmSu:  NxtVal=            107.
 Electronic moments (au):
        -48.00000000          3.21427270         -0.37194781          0.00000724
       -571.85774914       -137.41688433        -44.84052913         -0.20480528
          0.00006424         -0.00016094       -618.04888924        -56.13159290
         -0.00149416        143.12817392        146.56109424          0.00637737
        -46.54563231          9.84083004         -0.00050401          0.00907756
     -12918.07835120       -934.62475632       -207.55623935       -247.39841382
         -0.03290497        150.23625596         -0.01289506         -0.00383623
          0.01182632      -1424.93550664       -561.63811984       -171.73317740
         -0.01463271          0.00740254         23.88041085
 Electronic spatial extent (au):  <R**2>=            754.1152
 DipInt: DoE/N= F T RetVal/Mat= T F Init=T NMatP=  1 IDeriv=0 Min/MaxMlt=  0  4
 Nuclear    moments (au):
         47.00000000         -0.00000000         -0.00000000          0.00000000
        524.34960942        101.13144731         16.16567961          0.00000000
         -0.00016056          0.00001253        651.51938975         52.50682622
          0.00163590       -125.91608258       -134.63055200         -0.00580251
         43.18602285         -9.82636960          0.00029419         -0.00839836
      10423.12176426        407.02856428         43.56036177        213.91927271
          0.02955541       -134.22051921          0.01407613          0.00464782
         -0.01255512        921.82637733        181.27923566         64.68865863
          0.01248397         -0.00779514        -25.87183252
 Total      moments (au):
         -1.00000000          3.21427270         -0.37194781          0.00000724
        -47.50813972        -36.28543701        -28.67484952         -0.20480528
         -0.00009632         -0.00014841         33.47050050         -3.62476669
          0.00014174         17.21209134         11.93054225          0.00057486
         -3.35960946          0.01446044         -0.00020981          0.00067919
      -2494.95658694       -527.59619205       -163.99587758        -33.47914111
         -0.00334956         16.01573676          0.00118107          0.00081158
         -0.00072880       -503.10912931       -380.35888418       -107.04451877
         -0.00214874         -0.00039260         -1.99142167
 Traceless Quadrup. (au):
        -10.01866430          1.20403840          8.81462590         -0.20480528
         -0.00009632         -0.00014841
 Charge=             -1.0000 electrons
 Dipole moment (field-independent basis, Debye):
    X=              8.1699    Y=             -0.9454    Z=              0.0000  Tot=              8.2244
 Quadrupole moment (field-independent basis, Debye-Ang):
   XX=            -63.9001   YY=            -48.8052   ZZ=            -38.5687
   XY=             -0.2755   XZ=             -0.0001   YZ=             -0.0002
 Traceless Quadrupole moment (field-independent basis, Debye-Ang):
   XX=            -13.4754   YY=              1.6195   ZZ=             11.8560
   XY=             -0.2755   XZ=             -0.0001   YZ=             -0.0002
 Octapole moment (field-independent basis, Debye-Ang**2):
  XXX=             23.8230  YYY=             -2.5800  ZZZ=              0.0001  XYY=             12.2509
  XXY=              8.4917  XXZ=              0.0004  XZZ=             -2.3912  YZZ=              0.0103
  YYZ=             -0.0001  XYZ=              0.0005
 Hexadecapole moment (field-independent basis, Debye-Ang**3):
 XXXX=           -939.7203 YYYY=           -198.7180 ZZZZ=            -61.7687 XXXY=            -12.6098
 XXXZ=             -0.0013 YYYX=              6.0323 YYYZ=              0.0004 ZZZX=              0.0003
 ZZZY=             -0.0003 XXYY=           -189.4950 XXZZ=           -143.2614 YYZZ=            -40.3181
 XXYZ=             -0.0008 YYXZ=             -0.0001 ZZXY=             -0.7501
 N-N= 2.292771285328D+02 E-N=-1.186342300810D+03  KE= 3.052807106498D+02
 SetAtRh:  ITypeU=  23 NETotI=      -1 ICharg=  0 NETot=      47.
 StAtR1:  I=    1 I1=    1 IA=  6 C=   6.0 OKShel=TTT
                                                  SSP
                                                  222
 StAtR1:  I=    2 I1=    2 IA=  6 C=   6.0 OKShel=TTT
                                                  SSP
                                                  222
 StAtR1:  I=    3 I1=    3 IA=  8 C=   8.0 OKShel=TTT
                                                  SSP
                                                  224
 StAtR1:  I=    4 I1=    4 IA=  8 C=   8.0 OKShel=TTT
                                                  SSP
                                                  224
 StAtR1:  I=    5 I1=    5 IA=  6 C=   6.0 OKShel=TTT
                                                  SSP
                                                  222
 StAtR1:  I=    6 I1=    6 IA=  1 C=   1.0 OKShel=T
                                                  S
                                                  1
 StAtR1:  I=    7 I1=    7 IA=  1 C=   1.0 OKShel=T
                                                  S
                                                  1
 StAtR1:  I=    8 I1=    8 IA=  1 C=   1.0 OKShel=T
                                                  S
                                                  1
 StAtR1:  I=    9 I1=    9 IA=  1 C=   1.0 OKShel=T
                                                  S
                                                  1
 StAtR1:  I=   10 I1=   10 IA=  6 C=   6.0 OKShel=TTT
                                                  SSP
                                                  222
 StAtR1:  I=   11 I1=   11 IA=  1 C=   1.0 OKShel=T
                                                  S
                                                  1
 StAtR1:  I=   12 I1=   12 IA=  1 C=   1.0 OKShel=T
                                                  S
                                                  1
 StAtR1:  I=   13 I1=   13 IA=  1 C=   1.0 OKShel=T
                                                  S
                                                  1
          I=    1 IA=  6 I1=    1 NAtG=23 NE=   6.000 C=   6.000 Err= 1.75D-11
          I=    2 IA=  6 I1=    2 NAtG=23 NE=   6.000 C=   6.000 Err= 1.75D-11
          I=    3 IA=  8 I1=    3 NAtG=23 NE=   8.000 C=   8.000 Err=-3.68D-11
          I=    4 IA=  8 I1=    4 NAtG=23 NE=   8.000 C=   8.000 Err=-3.68D-11
          I=    5 IA=  6 I1=    5 NAtG=23 NE=   6.000 C=   6.000 Err= 1.75D-11
          I=    6 IA=  1 I1=    6 NAtG=20 NE=   1.000 C=   1.000 Err= 2.80D-12
          I=    7 IA=  1 I1=    7 NAtG=20 NE=   1.000 C=   1.000 Err= 2.80D-12
          I=    8 IA=  1 I1=    8 NAtG=20 NE=   1.000 C=   1.000 Err= 2.80D-12
          I=    9 IA=  1 I1=    9 NAtG=20 NE=   1.000 C=   1.000 Err= 2.80D-12
          I=   10 IA=  6 I1=   10 NAtG=23 NE=   6.000 C=   6.000 Err= 1.75D-11
          I=   11 IA=  1 I1=   11 NAtG=20 NE=   1.000 C=   1.000 Err= 2.80D-12
          I=   12 IA=  1 I1=   12 NAtG=20 NE=   1.000 C=   1.000 Err= 2.80D-12
          I=   13 IA=  1 I1=   13 NAtG=20 NE=   1.000 C=   1.000 Err= 2.80D-12
 Pruned (  99, 590) grid will be used in numerical quadrature.
 IPart=  0 IRanGd=          0 ScrnBf=T ScrnGd=T RCrit=4.00D+00 DoMicB=T.
 CutRad = 1000.00    CtRdIn =    0.00    XCrit =  15.00   ICut = 0
 Pruned (  99, 590) grid will be used in numerical quadrature.
 Pruned (  99, 590) grid will be used in numerical quadrature.
 IPart=  1 IRanGd=          0 ScrnBf=T ScrnGd=T RCrit=4.00D+00 DoMicB=T.
 Pruned (  99, 590) grid will be used in numerical quadrature.
 CutRad = 1000.00    CtRdIn =    0.00    XCrit =  15.00   ICut = 0
 IPart=  6 IRanGd=          0 ScrnBf=T ScrnGd=T RCrit=4.00D+00 DoMicB=T.
 CutRad = 1000.00    CtRdIn =    0.00    XCrit =  15.00   ICut = 0
 Pruned (  99, 590) grid will be used in numerical quadrature.
 Pruned (  99, 590) grid will be used in numerical quadrature.
 IPart= 12 IRanGd=          0 ScrnBf=T ScrnGd=T RCrit=4.00D+00 DoMicB=T.
 IPart=  2 IRanGd=          0 ScrnBf=T ScrnGd=T RCrit=4.00D+00 DoMicB=T.
 Pruned (  99, 590) grid will be used in numerical quadrature.
 Pruned (  99, 590) grid will be used in numerical quadrature.
 Pruned (  99, 590) grid will be used in numerical quadrature.
 IPart=  7 IRanGd=          0 ScrnBf=T ScrnGd=T RCrit=4.00D+00 DoMicB=T.
 Pruned (  99, 590) grid will be used in numerical quadrature.
 IPart= 14 IRanGd=          0 ScrnBf=T ScrnGd=T RCrit=4.00D+00 DoMicB=T.
 IPart= 13 IRanGd=          0 ScrnBf=T ScrnGd=T RCrit=4.00D+00 DoMicB=T.
 IPart= 11 IRanGd=          0 ScrnBf=T ScrnGd=T RCrit=4.00D+00 DoMicB=T.
 CutRad = 1000.00    CtRdIn =    0.00    XCrit =  15.00   ICut = 0
 CutRad = 1000.00    CtRdIn =    0.00    XCrit =  15.00   ICut = 0
 CutRad = 1000.00    CtRdIn =    0.00    XCrit =  15.00   ICut = 0
 IPart=  9 IRanGd=          0 ScrnBf=T ScrnGd=T RCrit=4.00D+00 DoMicB=T.
 Pruned (  99, 590) grid will be used in numerical quadrature.
 CutRad = 1000.00    CtRdIn =    0.00    XCrit =  15.00   ICut = 0
 Pruned (  99, 590) grid will be used in numerical quadrature.
 CutRad = 1000.00    CtRdIn =    0.00    XCrit =  15.00   ICut = 0
 Pruned (  99, 590) grid will be used in numerical quadrature.
 IPart=  0 Atom number   1 atomic number  6 has       23114 grid points.
 CutRad = 1000.00    CtRdIn =    0.00    XCrit =  15.00   ICut = 0
 Pruned (  99, 590) grid will be used in numerical quadrature.
 Pruned (  99, 590) grid will be used in numerical quadrature.
 Pruned (  99, 590) grid will be used in numerical quadrature.
 IPart= 10 IRanGd=          0 ScrnBf=T ScrnGd=T RCrit=4.00D+00 DoMicB=T.
 IPart=  0 Atom   1 batch    1 overlaps   13 atoms,   142 shells and    13 DB shells.   NGrid=      2408
 IPart=  3 IRanGd=          0 ScrnBf=T ScrnGd=T RCrit=4.00D+00 DoMicB=T.
 IPart=  8 IRanGd=          0 ScrnBf=T ScrnGd=T RCrit=4.00D+00 DoMicB=T.
 CutRad = 1000.00    CtRdIn =    0.00    XCrit =  15.00   ICut = 0
 CutRad = 1000.00    CtRdIn =    0.00    XCrit =  15.00   ICut = 0
 CutRad = 1000.00    CtRdIn =    0.00    XCrit =  15.00   ICut = 0
 Symmetry reduced    86 angular points to    86 for atom    1.
 IPart= 15 IRanGd=          0 ScrnBf=T ScrnGd=T RCrit=4.00D+00 DoMicB=T.
 CutRad = 1000.00    CtRdIn =    0.00    XCrit =  15.00   ICut = 0
 CutRad = 1000.00    CtRdIn =    0.00    XCrit =  15.00   ICut = 0
 IPart=  5 IRanGd=          0 ScrnBf=T ScrnGd=T RCrit=4.00D+00 DoMicB=T.
 CutRad = 1000.00    CtRdIn =    0.00    XCrit =  15.00   ICut = 0
 Pruned (  99, 590) grid will be used in numerical quadrature.
 IPart=  4 IRanGd=          0 ScrnBf=T ScrnGd=T RCrit=4.00D+00 DoMicB=T.
 CutRad = 1000.00    CtRdIn =    0.00    XCrit =  15.00   ICut = 0
 Pruned (  99, 590) grid will be used in numerical quadrature.
 IPart=  1 Atom number   1 atomic number  6 has       23114 grid points.
 Pruned (  99, 590) grid will be used in numerical quadrature.
 IPart=  1 Atom   1 batch    2 overlaps   13 atoms,   142 shells and    13 DB shells.   NGrid=      2522
 IPart=  6 Atom number   1 atomic number  6 has       23114 grid points.
 Symmetry reduced   194 angular points to   194 for atom    1.
 IPart=  6 Atom   1 batch    3 overlaps   13 atoms,   143 shells and    13 DB shells.   NGrid=      2114
 Symmetry reduced   302 angular points to   302 for atom    1.
 Pruned (  99, 590) grid will be used in numerical quadrature.
 IPart= 11 Atom number   1 atomic number  6 has       23114 grid points.
 Pruned (  99, 590) grid will be used in numerical quadrature.
 IPart= 11 Atom   1 batch    4 overlaps   13 atoms,   144 shells and    13 DB shells.   NGrid=      1180
 IPart= 14 Atom number   1 atomic number  6 has       23114 grid points.
 Pruned (  99, 590) grid will be used in numerical quadrature.
 IPart= 14 Atom   1 batch    5 overlaps   13 atoms,   145 shells and    13 DB shells.   NGrid=      1180
 IPart=  7 Atom number   1 atomic number  6 has       23114 grid points.
 Symmetry reduced   590 angular points to   590 for atom    1.
 IPart=  7 Atom   1 batch    6 overlaps   13 atoms,   145 shells and    13 DB shells.   NGrid=      1180
 Symmetry reduced   590 angular points to   590 for atom    1.
 Symmetry reduced   590 angular points to   590 for atom    1.
 Pruned (  99, 590) grid will be used in numerical quadrature.
 Pruned (  99, 590) grid will be used in numerical quadrature.
 IPart= 13 Atom number   1 atomic number  6 has       23114 grid points.
 IPart=  2 Atom number   1 atomic number  6 has       23114 grid points.
 IPart= 13 Atom   1 batch    9 overlaps   13 atoms,   147 shells and    13 DB shells.   NGrid=      1180
 IPart=  2 Atom   1 batch    8 overlaps   13 atoms,   147 shells and    13 DB shells.   NGrid=      1180
 Symmetry reduced   590 angular points to   590 for atom    1.
 Symmetry reduced   590 angular points to   590 for atom    1.
 Pruned (  99, 590) grid will be used in numerical quadrature.
 Pruned (  99, 590) grid will be used in numerical quadrature.
 Pruned (  99, 590) grid will be used in numerical quadrature.
 IPart= 10 Atom number   1 atomic number  6 has       23114 grid points.
 Pruned (  99, 590) grid will be used in numerical quadrature.
 IPart= 10 Atom   1 batch   10 overlaps   13 atoms,   147 shells and    13 DB shells.   NGrid=      1180
 IPart=  3 Atom number   1 atomic number  6 has       23114 grid points.
 IPart=  9 Atom number   1 atomic number  6 has       23114 grid points.
 Symmetry reduced   590 angular points to   590 for atom    1.
 IPart= 12 Atom number   1 atomic number  6 has       23114 grid points.
 IPart=  3 Atom   1 batch   13 overlaps   13 atoms,   146 shells and    13 DB shells.   NGrid=       604
 IPart= 12 Atom   1 batch    7 overlaps   13 atoms,   147 shells and    13 DB shells.   NGrid=      1180
 Pruned (  99, 590) grid will be used in numerical quadrature.
 Symmetry reduced   590 angular points to   590 for atom    1.
 IPart=  4 Atom number   1 atomic number  6 has       23114 grid points.
 Pruned (  99, 590) grid will be used in numerical quadrature.
 IPart=  4 Atom   1 batch   15 overlaps   13 atoms,   141 shells and    13 DB shells.   NGrid=       604
 IPart=  9 Atom   1 batch   12 overlaps   13 atoms,   146 shells and    13 DB shells.   NGrid=       590
 Pruned (  99, 590) grid will be used in numerical quadrature.
 Symmetry reduced   590 angular points to   590 for atom    1.
 IPart= 15 Atom number   1 atomic number  6 has       23114 grid points.
 Symmetry reduced   302 angular points to   302 for atom    1.
 IPart= 15 Atom   1 batch   14 overlaps   13 atoms,   146 shells and    13 DB shells.   NGrid=       604
 IPart=  8 Atom number   1 atomic number  6 has       23114 grid points.
 Symmetry reduced   302 angular points to   302 for atom    1.
 IPart=  8 Atom   1 batch   11 overlaps   13 atoms,   146 shells and    13 DB shells.   NGrid=      1180
 Symmetry reduced   302 angular points to   302 for atom    1.
 Symmetry reduced   590 angular points to   590 for atom    1.
 Pruned (  99, 590) grid will be used in numerical quadrature.
 IPart=  5 Atom number   1 atomic number  6 has       23114 grid points.
 IPart=  5 Atom   1 batch   16 overlaps   13 atoms,   134 shells and    13 DB shells.   NGrid=       604
 Symmetry reduced   302 angular points to   302 for atom    1.
 IPart=  5 Atom   1 batch   17 overlaps   13 atoms,   115 shells and    13 DB shells.   NGrid=       604
 IPart=  4 Atom   1 batch   18 overlaps   13 atoms,    90 shells and    13 DB shells.   NGrid=       604
 IPart=  5 Atom   1 batch   19 overlaps   13 atoms,    66 shells and    13 DB shells.   NGrid=       604
 IPart=  4 Atom   1 batch   21 overlaps   13 atoms,    20 shells and     0 DB shells.   NGrid=       604
 IPart= 15 Atom   1 batch   20 overlaps   13 atoms,    41 shells and     8 DB shells.   NGrid=       604
 IPart=  5 Atom   1 batch   22 overlaps   13 atoms,     9 shells and     0 DB shells.   NGrid=       604
 Pruned (  99, 590) grid will be used in numerical quadrature.
 IPart=  4 Atom number   2 atomic number  6 has       23416 grid points.
 IPart=  4 Atom   2 batch    1 overlaps   13 atoms,   133 shells and    13 DB shells.   NGrid=      2408
 Symmetry reduced    86 angular points to    86 for atom    2.
 Pruned (  99, 590) grid will be used in numerical quadrature.
 IPart= 15 Atom number   2 atomic number  6 has       23416 grid points.
 IPart= 15 Atom   2 batch    2 overlaps   13 atoms,   133 shells and    13 DB shells.   NGrid=      2522
 Pruned (  99, 590) grid will be used in numerical quadrature.
 Symmetry reduced   194 angular points to   194 for atom    2.
 IPart=  5 Atom number   2 atomic number  6 has       23416 grid points.
 IPart=  5 Atom   2 batch    3 overlaps   13 atoms,   134 shells and    13 DB shells.   NGrid=      2114
 Symmetry reduced   302 angular points to   302 for atom    2.
 Pruned (  99, 590) grid will be used in numerical quadrature.
 IPart=  9 Atom number   2 atomic number  6 has       23416 grid points.
 IPart=  9 Atom   2 batch    4 overlaps   13 atoms,   135 shells and    13 DB shells.   NGrid=      1180
 Symmetry reduced   590 angular points to   590 for atom    2.
 Pruned (  99, 590) grid will be used in numerical quadrature.
 IPart=  3 Atom number   2 atomic number  6 has       23416 grid points.
 IPart=  3 Atom   2 batch    5 overlaps   13 atoms,   136 shells and    13 DB shells.   NGrid=      1180
 Symmetry reduced   590 angular points to   590 for atom    2.
 Pruned (  99, 590) grid will be used in numerical quadrature.
 IPart=  8 Atom number   2 atomic number  6 has       23416 grid points.
 IPart=  8 Atom   2 batch    6 overlaps   13 atoms,   139 shells and    13 DB shells.   NGrid=      1180
 Symmetry reduced   590 angular points to   590 for atom    2.
 Pruned (  99, 590) grid will be used in numerical quadrature.
 IPart= 10 Atom number   2 atomic number  6 has       23416 grid points.
 IPart= 10 Atom   2 batch    7 overlaps   13 atoms,   139 shells and    13 DB shells.   NGrid=      1180
 Symmetry reduced   590 angular points to   590 for atom    2.
 Pruned (  99, 590) grid will be used in numerical quadrature.
 IPart= 13 Atom number   2 atomic number  6 has       23416 grid points.
 IPart= 13 Atom   2 batch    8 overlaps   13 atoms,   141 shells and    13 DB shells.   NGrid=      1180
 Symmetry reduced   590 angular points to   590 for atom    2.
 Pruned (  99, 590) grid will be used in numerical quadrature.
 IPart=  7 Atom number   2 atomic number  6 has       23416 grid points.
 IPart=  7 Atom   2 batch    9 overlaps   13 atoms,   144 shells and    13 DB shells.   NGrid=      1180
 Symmetry reduced   590 angular points to   590 for atom    2.
 Pruned (  99, 590) grid will be used in numerical quadrature.
 IPart= 14 Atom number   2 atomic number  6 has       23416 grid points.
 IPart= 14 Atom   2 batch   10 overlaps   13 atoms,   145 shells and    13 DB shells.   NGrid=      1180
 Symmetry reduced   590 angular points to   590 for atom    2.
 Pruned (  99, 590) grid will be used in numerical quadrature.
 IPart= 11 Atom number   2 atomic number  6 has       23416 grid points.
 IPart= 11 Atom   2 batch   11 overlaps   13 atoms,   145 shells and    13 DB shells.   NGrid=      1180
 Pruned (  99, 590) grid will be used in numerical quadrature.
 Symmetry reduced   590 angular points to   590 for atom    2.
 IPart=  2 Atom number   2 atomic number  6 has       23416 grid points.
 IPart=  2 Atom   2 batch   12 overlaps   13 atoms,   146 shells and    13 DB shells.   NGrid=       590
 Symmetry reduced   590 angular points to   590 for atom    2.
 Pruned (  99, 590) grid will be used in numerical quadrature.
 IPart= 12 Atom number   2 atomic number  6 has       23416 grid points.
 IPart= 12 Atom   2 batch   13 overlaps   13 atoms,   146 shells and    13 DB shells.   NGrid=       604
 Symmetry reduced   302 angular points to   302 for atom    2.
 IPart=  9 Atom   2 batch   14 overlaps   13 atoms,   144 shells and    13 DB shells.   NGrid=       604
 Symmetry reduced   302 angular points to   302 for atom    2.
 IPart=  3 Atom   2 batch   15 overlaps   13 atoms,   140 shells and    13 DB shells.   NGrid=       604
 Symmetry reduced   302 angular points to   302 for atom    2.
 IPart=  2 Atom   2 batch   16 overlaps   13 atoms,   131 shells and    13 DB shells.   NGrid=       604
 Symmetry reduced   302 angular points to   302 for atom    2.
 IPart= 12 Atom   2 batch   17 overlaps   13 atoms,   119 shells and    13 DB shells.   NGrid=       604
 Pruned (  99, 590) grid will be used in numerical quadrature.
 IPart=  0 Atom number   2 atomic number  6 has       23416 grid points.
 IPart=  0 Atom   2 batch   18 overlaps   13 atoms,    99 shells and    13 DB shells.   NGrid=       604
 Symmetry reduced   302 angular points to   302 for atom    2.
 IPart= 12 Atom   2 batch   19 overlaps   13 atoms,    74 shells and    13 DB shells.   NGrid=       604
 IPart=  3 Atom   2 batch   20 overlaps   13 atoms,    47 shells and    10 DB shells.   NGrid=       604
 Pruned (  99, 590) grid will be used in numerical quadrature.
 IPart=  3 Atom   2 batch   22 overlaps   13 atoms,    11 shells and     0 DB shells.   NGrid=       604
 IPart=  6 Atom number   2 atomic number  6 has       23416 grid points.
 IPart=  6 Atom   2 batch   21 overlaps   13 atoms,    24 shells and     2 DB shells.   NGrid=       604
 Symmetry reduced   302 angular points to   302 for atom    2.
 IPart= 12 Atom   2 batch   23 overlaps   13 atoms,     0 shells and     0 DB shells.   NGrid=       302
 Pruned (  99, 590) grid will be used in numerical quadrature.
 IPart= 12 Atom number   3 atomic number  8 has       23718 grid points.
 IPart= 12 Atom   3 batch    1 overlaps   13 atoms,   128 shells and    13 DB shells.   NGrid=      2408
 Symmetry reduced    86 angular points to    86 for atom    3.
 Pruned (  99, 590) grid will be used in numerical quadrature.
 IPart=  2 Atom number   3 atomic number  8 has       23718 grid points.
 IPart=  2 Atom   3 batch    2 overlaps   13 atoms,   131 shells and    13 DB shells.   NGrid=      2522
 Symmetry reduced   194 angular points to   194 for atom    3.
 Pruned (  99, 590) grid will be used in numerical quadrature.
 IPart=  3 Atom number   3 atomic number  8 has       23718 grid points.
 IPart=  3 Atom   3 batch    3 overlaps   13 atoms,   131 shells and    13 DB shells.   NGrid=      2114
 Symmetry reduced   302 angular points to   302 for atom    3.
 Pruned (  99, 590) grid will be used in numerical quadrature.
 IPart=  6 Atom number   3 atomic number  8 has       23718 grid points.
 IPart=  6 Atom   3 batch    4 overlaps   13 atoms,   131 shells and    13 DB shells.   NGrid=      1180
 Pruned (  99, 590) grid will be used in numerical quadrature.
 Symmetry reduced   590 angular points to   590 for atom    3.
 IPart=  0 Atom number   3 atomic number  8 has       23718 grid points.
 IPart=  0 Atom   3 batch    5 overlaps   13 atoms,   132 shells and    13 DB shells.   NGrid=      1180
 Symmetry reduced   590 angular points to   590 for atom    3.
 Pruned (  99, 590) grid will be used in numerical quadrature.
 IPart=  9 Atom number   3 atomic number  8 has       23718 grid points.
 IPart=  9 Atom   3 batch    6 overlaps   13 atoms,   132 shells and    13 DB shells.   NGrid=      1180
 Symmetry reduced   590 angular points to   590 for atom    3.
 Pruned (  99, 590) grid will be used in numerical quadrature.
 IPart=  8 Atom number   3 atomic number  8 has       23718 grid points.
 IPart=  8 Atom   3 batch    7 overlaps   13 atoms,   132 shells and    13 DB shells.   NGrid=      1180
 Symmetry reduced   590 angular points to   590 for atom    3.
 Pruned (  99, 590) grid will be used in numerical quadrature.
 IPart= 10 Atom number   3 atomic number  8 has       23718 grid points.
 IPart= 10 Atom   3 batch    8 overlaps   13 atoms,   134 shells and    13 DB shells.   NGrid=      1180
 Pruned (  99, 590) grid will be used in numerical quadrature.
 Symmetry reduced   590 angular points to   590 for atom    3.
 IPart=  1 Atom number   2 atomic number  6 has       23416 grid points.
 Pruned (  99, 590) grid will be used in numerical quadrature.
 IPart=  1 Atom number   3 atomic number  8 has       23718 grid points.
 IPart=  1 Atom   3 batch    9 overlaps   13 atoms,   136 shells and    13 DB shells.   NGrid=      1180
 Symmetry reduced   590 angular points to   590 for atom    3.
 Pruned (  99, 590) grid will be used in numerical quadrature.
 IPart= 13 Atom number   3 atomic number  8 has       23718 grid points.
 IPart= 13 Atom   3 batch   10 overlaps   13 atoms,   137 shells and    13 DB shells.   NGrid=      1180
 Symmetry reduced   590 angular points to   590 for atom    3.
 Pruned (  99, 590) grid will be used in numerical quadrature.
 IPart= 14 Atom number   3 atomic number  8 has       23718 grid points.
 IPart= 14 Atom   3 batch   11 overlaps   13 atoms,   140 shells and    13 DB shells.   NGrid=      1180
 Symmetry reduced   590 angular points to   590 for atom    3.
 Pruned (  99, 590) grid will be used in numerical quadrature.
 IPart=  5 Atom number   3 atomic number  8 has       23718 grid points.
 IPart=  5 Atom   3 batch   12 overlaps   13 atoms,   139 shells and    13 DB shells.   NGrid=       590
 Pruned (  99, 590) grid will be used in numerical quadrature.
 Symmetry reduced   590 angular points to   590 for atom    3.
 IPart=  7 Atom number   3 atomic number  8 has       23718 grid points.
 IPart=  7 Atom   3 batch   13 overlaps   13 atoms,   144 shells and    13 DB shells.   NGrid=       604
 Symmetry reduced   302 angular points to   302 for atom    3.
 Pruned (  99, 590) grid will be used in numerical quadrature.
 IPart= 11 Atom number   3 atomic number  8 has       23718 grid points.
 IPart= 11 Atom   3 batch   14 overlaps   13 atoms,   145 shells and    13 DB shells.   NGrid=       604
 Symmetry reduced   302 angular points to   302 for atom    3.
 Pruned (  99, 590) grid will be used in numerical quadrature.
 IPart=  4 Atom number   3 atomic number  8 has       23718 grid points.
 IPart=  4 Atom   3 batch   15 overlaps   13 atoms,   143 shells and    13 DB shells.   NGrid=       604
 Symmetry reduced   302 angular points to   302 for atom    3.
 Pruned (  99, 590) grid will be used in numerical quadrature.
 IPart= 15 Atom number   3 atomic number  8 has       23718 grid points.
 IPart= 15 Atom   3 batch   16 overlaps   13 atoms,   141 shells and    13 DB shells.   NGrid=       604
 Symmetry reduced   302 angular points to   302 for atom    3.
 IPart=  5 Atom   3 batch   17 overlaps   13 atoms,   140 shells and    13 DB shells.   NGrid=       604
 Symmetry reduced   302 angular points to   302 for atom    3.
 IPart=  4 Atom   3 batch   18 overlaps   13 atoms,   130 shells and    13 DB shells.   NGrid=       604
 IPart=  7 Atom   3 batch   19 overlaps   13 atoms,   119 shells and    13 DB shells.   NGrid=       604
 IPart= 11 Atom   3 batch   20 overlaps   13 atoms,    94 shells and    12 DB shells.   NGrid=       604
 IPart= 11 Atom   3 batch   21 overlaps   13 atoms,    58 shells and    11 DB shells.   NGrid=       604
 IPart= 15 Atom   3 batch   22 overlaps   13 atoms,    29 shells and     4 DB shells.   NGrid=       604
 IPart= 11 Atom   3 batch   23 overlaps   13 atoms,    11 shells and     0 DB shells.   NGrid=       604
 Pruned (  99, 590) grid will be used in numerical quadrature.
 IPart= 11 Atom number   4 atomic number  8 has       24020 grid points.
 IPart= 11 Atom   4 batch    1 overlaps   13 atoms,   119 shells and    13 DB shells.   NGrid=      2408
 Symmetry reduced    86 angular points to    86 for atom    4.
 Pruned (  99, 590) grid will be used in numerical quadrature.
 IPart= 15 Atom number   4 atomic number  8 has       24020 grid points.
 IPart= 15 Atom   4 batch    2 overlaps   13 atoms,   121 shells and    13 DB shells.   NGrid=      2522
 Symmetry reduced   194 angular points to   194 for atom    4.
 Pruned (  99, 590) grid will be used in numerical quadrature.
 IPart=  6 Atom number   4 atomic number  8 has       24020 grid points.
 IPart=  6 Atom   4 batch    3 overlaps   13 atoms,   122 shells and    13 DB shells.   NGrid=      2114
 Symmetry reduced   302 angular points to   302 for atom    4.
 Pruned (  99, 590) grid will be used in numerical quadrature.
 IPart=  7 Atom number   4 atomic number  8 has       24020 grid points.
 IPart=  7 Atom   4 batch    4 overlaps   13 atoms,   123 shells and    13 DB shells.   NGrid=      1180
 Symmetry reduced   590 angular points to   590 for atom    4.
 Pruned (  99, 590) grid will be used in numerical quadrature.
 IPart=  0 Atom number   4 atomic number  8 has       24020 grid points.
 IPart=  0 Atom   4 batch    5 overlaps   13 atoms,   126 shells and    13 DB shells.   NGrid=      1180
 Symmetry reduced   590 angular points to   590 for atom    4.
 Pruned (  99, 590) grid will be used in numerical quadrature.
 IPart=  4 Atom number   4 atomic number  8 has       24020 grid points.
 IPart=  4 Atom   4 batch    6 overlaps   13 atoms,   127 shells and    13 DB shells.   NGrid=      1180
 Symmetry reduced   590 angular points to   590 for atom    4.
 Pruned (  99, 590) grid will be used in numerical quadrature.
 IPart=  9 Atom number   4 atomic number  8 has       24020 grid points.
 IPart=  9 Atom   4 batch    7 overlaps   13 atoms,   127 shells and    13 DB shells.   NGrid=      1180
 Symmetry reduced   590 angular points to   590 for atom    4.
 Pruned (  99, 590) grid will be used in numerical quadrature.
 IPart=  5 Atom number   4 atomic number  8 has       24020 grid points.
 IPart=  5 Atom   4 batch    8 overlaps   13 atoms,   131 shells and    13 DB shells.   NGrid=      1180
 Symmetry reduced   590 angular points to   590 for atom    4.
 Pruned (  99, 590) grid will be used in numerical quadrature.
 IPart=  8 Atom number   4 atomic number  8 has       24020 grid points.
 IPart=  8 Atom   4 batch    9 overlaps   13 atoms,   133 shells and    13 DB shells.   NGrid=      1180
 Symmetry reduced   590 angular points to   590 for atom    4.
 Pruned (  99, 590) grid will be used in numerical quadrature.
 IPart= 10 Atom number   4 atomic number  8 has       24020 grid points.
 IPart= 10 Atom   4 batch   10 overlaps   13 atoms,   133 shells and    13 DB shells.   NGrid=      1180
 Symmetry reduced   590 angular points to   590 for atom    4.
 Pruned (  99, 590) grid will be used in numerical quadrature.
 IPart=  1 Atom number   4 atomic number  8 has       24020 grid points.
 IPart=  1 Atom   4 batch   11 overlaps   13 atoms,   134 shells and    13 DB shells.   NGrid=      1180
 Symmetry reduced   590 angular points to   590 for atom    4.
 Pruned (  99, 590) grid will be used in numerical quadrature.
 IPart= 13 Atom number   4 atomic number  8 has       24020 grid points.
 IPart= 13 Atom   4 batch   12 overlaps   13 atoms,   134 shells and    13 DB shells.   NGrid=       590
 Symmetry reduced   590 angular points to   590 for atom    4.
 Pruned (  99, 590) grid will be used in numerical quadrature.
 IPart= 14 Atom number   4 atomic number  8 has       24020 grid points.
 IPart= 14 Atom   4 batch   13 overlaps   13 atoms,   138 shells and    13 DB shells.   NGrid=       604
 Symmetry reduced   302 angular points to   302 for atom    4.
 Pruned (  99, 590) grid will be used in numerical quadrature.
 IPart= 12 Atom number   4 atomic number  8 has       24020 grid points.
 IPart= 12 Atom   4 batch   14 overlaps   13 atoms,   142 shells and    13 DB shells.   NGrid=       604
 Symmetry reduced   302 angular points to   302 for atom    4.
 Pruned (  99, 590) grid will be used in numerical quadrature.
 IPart=  3 Atom number   4 atomic number  8 has       24020 grid points.
 IPart=  3 Atom   4 batch   15 overlaps   13 atoms,   141 shells and    13 DB shells.   NGrid=       604
 Symmetry reduced   302 angular points to   302 for atom    4.
 Pruned (  99, 590) grid will be used in numerical quadrature.
 IPart=  2 Atom number   4 atomic number  8 has       24020 grid points.
 IPart=  2 Atom   4 batch   16 overlaps   13 atoms,   141 shells and    13 DB shells.   NGrid=       604
 Symmetry reduced   302 angular points to   302 for atom    4.
 IPart= 13 Atom   4 batch   17 overlaps   13 atoms,   140 shells and    13 DB shells.   NGrid=       604
 Symmetry reduced   302 angular points to   302 for atom    4.
 IPart= 14 Atom   4 batch   18 overlaps   13 atoms,   132 shells and    13 DB shells.   NGrid=       604
 IPart=  7 Atom   4 batch   19 overlaps   13 atoms,   119 shells and    13 DB shells.   NGrid=       604
 Symmetry reduced   302 angular points to   302 for atom    4.
 IPart=  0 Atom   4 batch   20 overlaps   13 atoms,    96 shells and    12 DB shells.   NGrid=       604
 Symmetry reduced   302 angular points to   302 for atom    4.
 IPart=  4 Atom   4 batch   21 overlaps   13 atoms,    61 shells and    11 DB shells.   NGrid=       604
 Symmetry reduced   302 angular points to   302 for atom    4.
 IPart=  9 Atom   4 batch   22 overlaps   13 atoms,    32 shells and     7 DB shells.   NGrid=       604
 Symmetry reduced   302 angular points to   302 for atom    4.
 IPart=  4 Atom   4 batch   23 overlaps   13 atoms,    12 shells and     0 DB shells.   NGrid=       604
 IPart=  0 Atom   4 batch   24 overlaps   13 atoms,     0 shells and     0 DB shells.   NGrid=       302
 Pruned (  99, 590) grid will be used in numerical quadrature.
 IPart=  0 Atom number   5 atomic number  6 has       23114 grid points.
 IPart=  0 Atom   5 batch    1 overlaps   13 atoms,   137 shells and    13 DB shells.   NGrid=      2408
 Symmetry reduced    86 angular points to    86 for atom    5.
 Pruned (  99, 590) grid will be used in numerical quadrature.
 IPart=  4 Atom number   5 atomic number  6 has       23114 grid points.
 IPart=  4 Atom   5 batch    2 overlaps   13 atoms,   138 shells and    13 DB shells.   NGrid=      2522
 Symmetry reduced   194 angular points to   194 for atom    5.
 Pruned (  99, 590) grid will be used in numerical quadrature.
 IPart=  9 Atom number   5 atomic number  6 has       23114 grid points.
 IPart=  9 Atom   5 batch    3 overlaps   13 atoms,   140 shells and    13 DB shells.   NGrid=      2114
 Symmetry reduced   302 angular points to   302 for atom    5.
 Pruned (  99, 590) grid will be used in numerical quadrature.
 IPart=  7 Atom number   5 atomic number  6 has       23114 grid points.
 IPart=  7 Atom   5 batch    4 overlaps   13 atoms,   140 shells and    13 DB shells.   NGrid=      1180
 Symmetry reduced   590 angular points to   590 for atom    5.
 Pruned (  99, 590) grid will be used in numerical quadrature.
 IPart=  5 Atom number   5 atomic number  6 has       23114 grid points.
 IPart=  5 Atom   5 batch    5 overlaps   13 atoms,   142 shells and    13 DB shells.   NGrid=      1180
 Symmetry reduced   590 angular points to   590 for atom    5.
 Pruned (  99, 590) grid will be used in numerical quadrature.
 IPart= 12 Atom number   5 atomic number  6 has       23114 grid points.
 Pruned (  99, 590) grid will be used in numerical quadrature.
 IPart= 12 Atom   5 batch    6 overlaps   13 atoms,   142 shells and    13 DB shells.   NGrid=      1180
[...]
 3819 Fit      -0.112072
 3820 Fit      -0.107889
 3821 Fit      -0.105022
 3822 Fit      -0.103244
 3823 Fit      -0.146228
 3824 Fit      -0.133692
 3825 Fit      -0.124253
 3826 Fit      -0.117206
 3827 Fit      -0.112039
 3828 Fit      -0.108385
 3829 Fit      -0.105987
 3830 Fit      -0.104642
 3831 Fit      -0.147822
 3832 Fit      -0.135009
 3833 Fit      -0.125576
 3834 Fit      -0.118651
 3835 Fit      -0.113650
 3836 Fit      -0.110187
 3837 Fit      -0.108011
 3838 Fit      -0.106964
 3839 Fit      -0.131911
 3840 Fit      -0.123629
 3841 Fit      -0.117740
 3842 Fit      -0.113697
 3843 Fit      -0.111168
 3844 Fit      -0.131908
 3845 Fit      -0.123626
 3846 Fit      -0.117737
 3847 Fit      -0.113695
 3848 Fit      -0.111166
 3849 Fit      -0.147819
 3850 Fit      -0.135006
 3851 Fit      -0.125574
 3852 Fit      -0.118649
 3853 Fit      -0.113648
 3854 Fit      -0.110185
 3855 Fit      -0.108009
 3856 Fit      -0.106962
 3857 Fit      -0.146226
 3858 Fit      -0.133690
 3859 Fit      -0.124252
 3860 Fit      -0.117205
 3861 Fit      -0.112037
 3862 Fit      -0.108383
 3863 Fit      -0.105985
 3864 Fit      -0.104641
 3865 Fit      -0.148564
 3866 Fit      -0.135635
 3867 Fit      -0.125553
 3868 Fit      -0.117843
 3869 Fit      -0.112071
 3870 Fit      -0.107888
 3871 Fit      -0.105021
 3872 Fit      -0.103243
 3873 Fit      -0.149063
 3874 Fit      -0.137025
 3875 Fit      -0.127001
 3876 Fit      -0.118991
 3877 Fit      -0.112798
 3878 Fit      -0.108175
 3879 Fit      -0.104891
 3880 Fit      -0.102732
 3881 Fit      -0.101475
 3882 Fit      -0.144936
 3883 Fit      -0.134580
 3884 Fit      -0.125289
 3885 Fit      -0.117572
 3886 Fit      -0.111515
 3887 Fit      -0.107010
 3888 Fit      -0.103883
 3889 Fit      -0.101935
 3890 Fit      -0.100943
 3891 Fit      -0.146410
 3892 Fit      -0.139970
 3893 Fit      -0.131928
 3894 Fit      -0.123811
 3895 Fit      -0.116626
 3896 Fit      -0.110832
 3897 Fit      -0.106533
 3898 Fit      -0.103653
 3899 Fit      -0.102040
 3900 Fit      -0.101531
 3901 Fit      -0.105006
 3902 Fit      -0.107970
 3903 Fit      -0.112084
 3904 Fit      -0.117106
 3905 Fit      -0.122814
 3906 Fit      -0.133487
 3907 Fit      -0.136650
 3908 Fit      -0.137686
 3909 Fit      -0.136011
 3910 Fit      -0.131455
 3911 Fit      -0.124985
 3912 Fit      -0.118136
 3913 Fit      -0.112121
 3914 Fit      -0.107560
 3915 Fit      -0.104631
 3916 Fit      -0.103284
 3917 Fit      -0.103423
 3918 Fit      -0.106968
 3919 Fit      -0.110356
 3920 Fit      -0.115285
 3921 Fit      -0.120832
 3922 Fit      -0.125520
 3923 Fit      -0.127767
 3924 Fit      -0.126571
 3925 Fit      -0.122024
 3926 Fit      -0.115871
 3927 Fit      -0.110343
 3928 Fit      -0.106805
 3929 Fit      -0.105691
 3930 Fit      -0.109875
 3931 Fit      -0.114214
 3932 Fit      -0.119090
 3933 Fit      -0.119386
 3934 Fit      -0.114478
 3935 Fit      -0.109879
 3936 Fit      -0.113935
 3937 Fit      -0.108725
 3938 Fit      -0.104395
 3939 Fit      -0.105918
 3940 Fit      -0.111036
 3941 Fit      -0.114555
 3942 Fit      -0.112216
 3943 Fit      -0.107223
 3944 Fit      -0.101339
 3945 Fit      -0.101454
 3946 Fit      -0.103770
 3947 Fit      -0.108296
 3948 Fit      -0.114253
 3949 Fit      -0.119712
 3950 Fit      -0.122212
 3951 Fit      -0.120730
 3952 Fit      -0.116413
 3953 Fit      -0.111141
 3954 Fit      -0.106433
 3955 Fit      -0.103086
 3956 Fit      -0.099413
 3957 Fit      -0.099000
 3958 Fit      -0.099873
 3959 Fit      -0.102258
 3960 Fit      -0.106264
 3961 Fit      -0.111817
 3962 Fit      -0.118468
 3963 Fit      -0.125163
 3964 Fit      -0.130247
 3965 Fit      -0.132175
 3966 Fit      -0.130637
 3967 Fit      -0.126616
 3968 Fit      -0.121323
 3969 Fit      -0.115717
 3970 Fit      -0.106246
 3971 Fit      -0.103065
 3972 Fit      -0.100828
 3973 Fit      -0.097758
 3974 Fit      -0.097932
 3975 Fit      -0.099262
 3976 Fit      -0.101892
 3977 Fit      -0.105942
 3978 Fit      -0.111488
 3979 Fit      -0.118471
 3980 Fit      -0.126517
 3981 Fit      -0.134708
 3982 Fit      -0.141455
 3983 Fit      -0.144954
 3984 Fit      -0.097128
 3985 Fit      -0.097831
 3986 Fit      -0.099670
 3987 Fit      -0.102755
 3988 Fit      -0.107225
 3989 Fit      -0.113236
 3990 Fit      -0.120901
 3991 Fit      -0.130169
 3992 Fit      -0.140590
 3993 Fit      -0.097336
 3994 Fit      -0.098541
 3995 Fit      -0.100821
 3996 Fit      -0.104281
 3997 Fit      -0.109088
 3998 Fit      -0.115457
 3999 Fit      -0.123630
 4000 Fit      -0.133811
 4001 Fit      -0.146015
 4002 Fit      -0.097650
 4003 Fit      -0.098638
 4004 Fit      -0.100684
 4005 Fit      -0.103879
 4006 Fit      -0.108395
 4007 Fit      -0.114490
 4008 Fit      -0.122509
 4009 Fit      -0.132882
 4010 Fit      -0.146084
 4011 Fit      -0.099279
 4012 Fit      -0.101132
 4013 Fit      -0.104054
 4014 Fit      -0.108213
 4015 Fit      -0.113867
 4016 Fit      -0.121387
 4017 Fit      -0.131287
 4018 Fit      -0.144267
 4019 Fit      -0.105377
 4020 Fit      -0.109503
 4021 Fit      -0.115122
 4022 Fit      -0.122641
 4023 Fit      -0.132650
 4024 Fit      -0.146011
 4025 Fit      -0.119773
 4026 Fit      -0.128648
 4027 Fit      -0.140712
 4028 Fit      -0.119776
 4029 Fit      -0.128651
 4030 Fit      -0.140716
 4031 Fit      -0.105378
 4032 Fit      -0.109505
 4033 Fit      -0.115124
 4034 Fit      -0.122643
 4035 Fit      -0.132652
 4036 Fit      -0.146013
 4037 Fit      -0.099279
 4038 Fit      -0.101133
 4039 Fit      -0.104055
 4040 Fit      -0.108214
 4041 Fit      -0.113868
 4042 Fit      -0.121388
 4043 Fit      -0.131289
 4044 Fit      -0.144268
 4045 Fit      -0.097650
 4046 Fit      -0.098638
 4047 Fit      -0.100684
 4048 Fit      -0.103879
 4049 Fit      -0.108396
 4050 Fit      -0.114491
 4051 Fit      -0.122510
 4052 Fit      -0.132882
 4053 Fit      -0.146084
 4054 Fit      -0.097335
 4055 Fit      -0.098541
 4056 Fit      -0.100821
 4057 Fit      -0.104281
 4058 Fit      -0.109088
 4059 Fit      -0.115457
 4060 Fit      -0.123630
 4061 Fit      -0.133810
 4062 Fit      -0.146013
 4063 Fit      -0.097127
 4064 Fit      -0.097830
 4065 Fit      -0.099670
 4066 Fit      -0.102755
 4067 Fit      -0.107225
 4068 Fit      -0.113235
 4069 Fit      -0.120900
 4070 Fit      -0.130167
 4071 Fit      -0.140587
 4072 Fit      -0.097756
 4073 Fit      -0.097931
 4074 Fit      -0.099261
 4075 Fit      -0.101891
 4076 Fit      -0.105941
 4077 Fit      -0.111487
 4078 Fit      -0.118469
 4079 Fit      -0.126515
 4080 Fit      -0.134704
 4081 Fit      -0.141450
 4082 Fit      -0.144948
 4083 Fit      -0.099412
 4084 Fit      -0.098998
 4085 Fit      -0.099872
 4086 Fit      -0.102256
 4087 Fit      -0.106263
 4088 Fit      -0.111815
 4089 Fit      -0.118465
 4090 Fit      -0.125160
 4091 Fit      -0.130243
 4092 Fit      -0.132170
 4093 Fit      -0.130633
 4094 Fit      -0.126612
 4095 Fit      -0.121320
 4096 Fit      -0.115714
 4097 Fit      -0.106244
 4098 Fit      -0.103063
 4099 Fit      -0.100826
 4100 Fit      -0.101337
 4101 Fit      -0.101452
 4102 Fit      -0.103769
 4103 Fit      -0.108294
 4104 Fit      -0.114250
 4105 Fit      -0.119709
 4106 Fit      -0.122208
 4107 Fit      -0.120727
 4108 Fit      -0.116410
 4109 Fit      -0.111138
 4110 Fit      -0.106430
 4111 Fit      -0.103084
 4112 Fit      -0.104393
 4113 Fit      -0.105916
 4114 Fit      -0.111034
 4115 Fit      -0.114552
 4116 Fit      -0.112213
 4117 Fit      -0.107221
 4118 Fit      -0.108723
 4119 Fit      -0.093612
 4120 Fit      -0.097702
 4121 Fit      -0.089890
 4122 Fit      -0.092767
 4123 Fit      -0.096584
 4124 Fit      -0.085901
 4125 Fit      -0.087352
 4126 Fit      -0.089498
 4127 Fit      -0.092497
 4128 Fit      -0.096403
 4129 Fit      -0.084209
 4130 Fit      -0.085203
 4131 Fit      -0.086672
 4132 Fit      -0.088770
 4133 Fit      -0.091626
 4134 Fit      -0.095302
 4135 Fit      -0.082362
 4136 Fit      -0.082826
 4137 Fit      -0.091922
 4138 Fit      -0.095962
 4139 Fit      -0.081328
 4140 Fit      -0.096687
 4141 Fit      -0.081198
 4142 Fit      -0.080437
 4143 Fit      -0.080543
 4144 Fit      -0.080419
 4145 Fit      -0.080916
 4146 Fit      -0.080327
 4147 Fit      -0.079967
 4148 Fit      -0.079780
 4149 Fit      -0.082623
 4150 Fit      -0.081433
 4151 Fit      -0.080552
 4152 Fit      -0.079940
 4153 Fit      -0.079549
 4154 Fit      -0.079320
 4155 Fit      -0.106991
 4156 Fit      -0.100798
 4157 Fit      -0.095884
 4158 Fit      -0.091960
 4159 Fit      -0.088810
 4160 Fit      -0.086275
 4161 Fit      -0.084239
 4162 Fit      -0.082620
 4163 Fit      -0.081362
 4164 Fit      -0.080425
 4165 Fit      -0.079768
 4166 Fit      -0.079342
 4167 Fit      -0.079082
 4168 Fit      -0.106991
 4169 Fit      -0.100797
 4170 Fit      -0.095883
 4171 Fit      -0.091960
 4172 Fit      -0.088810
 4173 Fit      -0.086275
 4174 Fit      -0.084238
 4175 Fit      -0.082620
 4176 Fit      -0.081362
 4177 Fit      -0.080425
 4178 Fit      -0.079768
 4179 Fit      -0.079342
 4180 Fit      -0.079082
 4181 Fit      -0.082623
 4182 Fit      -0.081433
 4183 Fit      -0.080552
 4184 Fit      -0.079940
 4185 Fit      -0.079549
 4186 Fit      -0.079320
 4187 Fit      -0.080916
 4188 Fit      -0.080327
 4189 Fit      -0.079967
 4190 Fit      -0.079780
 4191 Fit      -0.080437
 4192 Fit      -0.080543
 4193 Fit      -0.080419
 4194 Fit      -0.081328
 4195 Fit      -0.096687
 4196 Fit      -0.081198
 4197 Fit      -0.082362
 4198 Fit      -0.082826
 4199 Fit      -0.091922
 4200 Fit      -0.095963
 4201 Fit      -0.084209
 4202 Fit      -0.085203
 4203 Fit      -0.086672
 4204 Fit      -0.088770
 4205 Fit      -0.091626
 4206 Fit      -0.095303
 4207 Fit      -0.085902
 4208 Fit      -0.087352
 4209 Fit      -0.089498
 4210 Fit      -0.092497
 4211 Fit      -0.096404
 4212 Fit      -0.089891
 4213 Fit      -0.092767
 4214 Fit      -0.096585
 4215 Fit      -0.093613
 4216 Fit      -0.097702
 4217 Fit      -0.089360
 4218 Fit      -0.086078
 4219 Fit      -0.088992
 4220 Fit      -0.092798
 4221 Fit      -0.093544
 4222 Fit      -0.090183
 4223 Fit      -0.086539
 4224 Fit      -0.083612
 4225 Fit      -0.085722
 4226 Fit      -0.089057
 4227 Fit      -0.093080
 4228 Fit      -0.096865
 4229 Fit      -0.099092
 4230 Fit      -0.098710
 4231 Fit      -0.095780
 4232 Fit      -0.091471
 4233 Fit      -0.087282
 4234 Fit      -0.084316
 4235 Fit      -0.083076
 4236 Fit      -0.081885
 4237 Fit      -0.083645
 4238 Fit      -0.086229
 4239 Fit      -0.089527
 4240 Fit      -0.093405
 4241 Fit      -0.097592
 4242 Fit      -0.101563
 4243 Fit      -0.104557
 4244 Fit      -0.105808
 4245 Fit      -0.104913
 4246 Fit      -0.102055
 4247 Fit      -0.097889
 4248 Fit      -0.093226
 4249 Fit      -0.088820
 4250 Fit      -0.085209
 4251 Fit      -0.082674
 4252 Fit      -0.081302
 4253 Fit      -0.081067
 4254 Fit      -0.080825
 4255 Fit      -0.082467
 4256 Fit      -0.084733
 4257 Fit      -0.087574
 4258 Fit      -0.097119
 4259 Fit      -0.092199
 4260 Fit      -0.087886
 4261 Fit      -0.084430
 4262 Fit      -0.081921
 4263 Fit      -0.080358
 4264 Fit      -0.079697
 4265 Fit      -0.079877
 4266 Fit      -0.080368
 4267 Fit      -0.081978
 4268 Fit      -0.084102
 4269 Fit      -0.098071
 4270 Fit      -0.092865
 4271 Fit      -0.088388
 4272 Fit      -0.084787
 4273 Fit      -0.082084
 4274 Fit      -0.080244
 4275 Fit      -0.079211
 4276 Fit      -0.078925
 4277 Fit      -0.079330
 4278 Fit      -0.080458
 4279 Fit      -0.082018
 4280 Fit      -0.099169
 4281 Fit      -0.093814
 4282 Fit      -0.089271
 4283 Fit      -0.085605
 4284 Fit      -0.082789
 4285 Fit      -0.080763
 4286 Fit      -0.079462
 4287 Fit      -0.078829
 4288 Fit      -0.078815
 4289 Fit      -0.079372
 4290 Fit      -0.081044
 4291 Fit      -0.098204
 4292 Fit      -0.092864
 4293 Fit      -0.088514
 4294 Fit      -0.085100
 4295 Fit      -0.082534
 4296 Fit      -0.080731
 4297 Fit      -0.079618
 4298 Fit      -0.079137
 4299 Fit      -0.079241
 4300 Fit      -0.079891
 4301 Fit      -0.103307
 4302 Fit      -0.097175
 4303 Fit      -0.092161
 4304 Fit      -0.088178
 4305 Fit      -0.085103
 4306 Fit      -0.082827
 4307 Fit      -0.081258
 4308 Fit      -0.080327
 4309 Fit      -0.079982
 4310 Fit      -0.080184
 4311 Fit      -0.103938
 4312 Fit      -0.097802
 4313 Fit      -0.092900
 4314 Fit      -0.089055
 4315 Fit      -0.086114
 4316 Fit      -0.083954
 4317 Fit      -0.082479
 4318 Fit      -0.081623
 4319 Fit      -0.081337
 4320 Fit      -0.096090
 4321 Fit      -0.091798
 4322 Fit      -0.088533
 4323 Fit      -0.086139
 4324 Fit      -0.083686
 4325 Fit      -0.084672
 4326 Fit      -0.087122
 4327 Fit      -0.091012
 4328 Fit      -0.081373
 4329 Fit      -0.080783
 4330 Fit      -0.081223
 4331 Fit      -0.082765
 4332 Fit      -0.085474
 4333 Fit      -0.089386
 4334 Fit      -0.094463
 4335 Fit      -0.079146
 4336 Fit      -0.078461
 4337 Fit      -0.078618
 4338 Fit      -0.079679
 4339 Fit      -0.081711
 4340 Fit      -0.084787
 4341 Fit      -0.088976
 4342 Fit      -0.094318
 4343 Fit      -0.080616
 4344 Fit      -0.077411
 4345 Fit      -0.076684
 4346 Fit      -0.076647
 4347 Fit      -0.077346
 4348 Fit      -0.078839
 4349 Fit      -0.081189
 4350 Fit      -0.084477
 4351 Fit      -0.088791
 4352 Fit      -0.094224
 4353 Fit      -0.078788
 4354 Fit      -0.076170
 4355 Fit      -0.075412
 4356 Fit      -0.075293
 4357 Fit      -0.075857
 4358 Fit      -0.077155
 4359 Fit      -0.079253
 4360 Fit      -0.082229
 4361 Fit      -0.086185
 4362 Fit      -0.091246
 4363 Fit      -0.097558
 4364 Fit      -0.077532
 4365 Fit      -0.075424
 4366 Fit      -0.074662
 4367 Fit      -0.074481
 4368 Fit      -0.074922
 4369 Fit      -0.076029
 4370 Fit      -0.077862
 4371 Fit      -0.080490
 4372 Fit      -0.084007
 4373 Fit      -0.088532
 4374 Fit      -0.094220
 4375 Fit      -0.078585
 4376 Fit      -0.076738
 4377 Fit      -0.075175
 4378 Fit      -0.074416
 4379 Fit      -0.074212
 4380 Fit      -0.074597
 4381 Fit      -0.075616
 4382 Fit      -0.077322
 4383 Fit      -0.079782
 4384 Fit      -0.083080
 4385 Fit      -0.087328
 4386 Fit      -0.092673
 4387 Fit      -0.099310
 4388 Fit      -0.078253
 4389 Fit      -0.076460
 4390 Fit      -0.075424
 4391 Fit      -0.074661
 4392 Fit      -0.074481
 4393 Fit      -0.074922
 4394 Fit      -0.076029
 4395 Fit      -0.077862
 4396 Fit      -0.080490
 4397 Fit      -0.084007
 4398 Fit      -0.088531
 4399 Fit      -0.094220
 4400 Fit      -0.078585
 4401 Fit      -0.076738
 4402 Fit      -0.076169
 4403 Fit      -0.075412
 4404 Fit      -0.075293
 4405 Fit      -0.075856
 4406 Fit      -0.077155
 4407 Fit      -0.079252
 4408 Fit      -0.082229
 4409 Fit      -0.086185
 4410 Fit      -0.091245
 4411 Fit      -0.097558
 4412 Fit      -0.077531
 4413 Fit      -0.077411
 4414 Fit      -0.076684
 4415 Fit      -0.076646
 4416 Fit      -0.077346
 4417 Fit      -0.078838
 4418 Fit      -0.081189
 4419 Fit      -0.084476
 4420 Fit      -0.088790
 4421 Fit      -0.094223
 4422 Fit      -0.078787
 4423 Fit      -0.079146
 4424 Fit      -0.078460
 4425 Fit      -0.078617
 4426 Fit      -0.079678
 4427 Fit      -0.081711
 4428 Fit      -0.084786
 4429 Fit      -0.088975
 4430 Fit      -0.094318
 4431 Fit      -0.080615
 4432 Fit      -0.081372
 4433 Fit      -0.080782
 4434 Fit      -0.081222
 4435 Fit      -0.082764
 4436 Fit      -0.085474
 4437 Fit      -0.089385
 4438 Fit      -0.094462
 4439 Fit      -0.083685
 4440 Fit      -0.084671
 4441 Fit      -0.087121
 4442 Fit      -0.091011
 4443 Fit      -0.096088
 4444 Fit      -0.091796
 4445 Fit      -0.088531
 4446 Fit      -0.086137
 4447 Fit      -0.103936
 4448 Fit      -0.097800
 4449 Fit      -0.092898
 4450 Fit      -0.089054
 4451 Fit      -0.086113
 4452 Fit      -0.083952
 4453 Fit      -0.082478
 4454 Fit      -0.081622
 4455 Fit      -0.081336
 4456 Fit      -0.103305
 4457 Fit      -0.097173
 4458 Fit      -0.092160
 4459 Fit      -0.088176
 4460 Fit      -0.085102
 4461 Fit      -0.082825
 4462 Fit      -0.081257
 4463 Fit      -0.080326
 4464 Fit      -0.079981
 4465 Fit      -0.080184
 4466 Fit      -0.081045
 4467 Fit      -0.098202
 4468 Fit      -0.092863
 4469 Fit      -0.088513
 4470 Fit      -0.085099
 4471 Fit      -0.082533
 4472 Fit      -0.080730
 4473 Fit      -0.079617
 4474 Fit      -0.079136
 4475 Fit      -0.079241
 4476 Fit      -0.079892
 4477 Fit      -0.080458
 4478 Fit      -0.082019
 4479 Fit      -0.099168
 4480 Fit      -0.093813
 4481 Fit      -0.089270
 4482 Fit      -0.085605
 4483 Fit      -0.082789
 4484 Fit      -0.080762
 4485 Fit      -0.079462
 4486 Fit      -0.078829
 4487 Fit      -0.078815
 4488 Fit      -0.079373
 4489 Fit      -0.080369
 4490 Fit      -0.081979
 4491 Fit      -0.084104
 4492 Fit      -0.098070
 4493 Fit      -0.092865
 4494 Fit      -0.088387
 4495 Fit      -0.084786
 4496 Fit      -0.082084
 4497 Fit      -0.080244
 4498 Fit      -0.079211
 4499 Fit      -0.078925
 4500 Fit      -0.079331
 4501 Fit      -0.080826
 4502 Fit      -0.082469
 4503 Fit      -0.084735
 4504 Fit      -0.087576
 4505 Fit      -0.097119
 4506 Fit      -0.092199
 4507 Fit      -0.087886
 4508 Fit      -0.084430
 4509 Fit      -0.081921
 4510 Fit      -0.080358
 4511 Fit      -0.079698
 4512 Fit      -0.079877
 4513 Fit      -0.081886
 4514 Fit      -0.083646
 4515 Fit      -0.086231
 4516 Fit      -0.089529
 4517 Fit      -0.093406
 4518 Fit      -0.097594
 4519 Fit      -0.101565
 4520 Fit      -0.104559
 4521 Fit      -0.105810
 4522 Fit      -0.104914
 4523 Fit      -0.102056
 4524 Fit      -0.097890
 4525 Fit      -0.093227
 4526 Fit      -0.088820
 4527 Fit      -0.085209
 4528 Fit      -0.082675
 4529 Fit      -0.081303
 4530 Fit      -0.081068
 4531 Fit      -0.083613
 4532 Fit      -0.085724
 4533 Fit      -0.089058
 4534 Fit      -0.093082
 4535 Fit      -0.096867
 4536 Fit      -0.099094
 4537 Fit      -0.098712
 4538 Fit      -0.095781
 4539 Fit      -0.091472
 4540 Fit      -0.087282
 4541 Fit      -0.084317
 4542 Fit      -0.083077
 4543 Fit      -0.086079
 4544 Fit      -0.088993
 4545 Fit      -0.092799
 4546 Fit      -0.093545
 4547 Fit      -0.090183
 4548 Fit      -0.086540
 4549 Fit      -0.089361
 -----------------------------------------------------------------
 Leave Link  602 at Tue Sep 30 17:03:48 2025, MaxMem=  4294967296 cpu:               3.7 elap:               0.2
 (Enter /software/sse/easybuild/prefix/software/Gaussian/16.C.01-avx2-nsc1/g16/l9999.exe)

 Test job not archived.
 1\1\NSC-N95\FOpt\RHF\Aug-CC-pVTZ\C4H7O2(1-)\X_DAVVA\30-Sep-2025\0\\#P 
 HF/aug-cc-pvtz Opt=tight Pop=(MK,Hirshfeld) iop(6/33=2) iop(6/42=6) ma
 xdisk=128GB\\butanoate\\-1,1\C,0.1469173969,-0.5697570203,0.0000378906
 \C,-1.2916793626,0.0092123206,0.0000024301\O,-1.3983877698,1.235739638
 7,0.0000009534\O,-2.1833461405,-0.841558441,-0.000013128\C,1.277234447
 9,0.4500984028,-0.0000420693\H,0.2295355539,-1.2219671288,0.8667903101
 \H,0.2295304944,-1.2221137518,-0.8666040559\H,1.1747055891,1.097335159
 5,0.8637057743\H,1.1747075932,1.0971928638,-0.8638981428\C,2.663807838
 3,-0.1925615537,0.0000071775\H,2.8074716592,-0.8207553393,0.8753339865
 \H,3.4527230083,0.5558081026,-0.0000574734\H,2.8074696918,-0.820903253
 ,-0.8752136531\\Version=ES64L-G16RevC.01\State=1-A\HF=-305.4276295\RMS
 D=4.150e-09\RMSF=7.239e-07\Dipole=3.214312,-0.3719289,0.000018\Quadrup
 ole=-10.0187318,1.2040802,8.8146517,-0.2048915,-0.0001015,0.000029\PG=
 C01 [X(C4H7O2)]\\@


 A SUCCESSFUL PURSUIT OF SCIENCE MAKES A MAN THE
 BENEFACTOR OF ALL MANKIND OF EVERY AGE.
   --  JOSEPH PRIESTLEY, "EXPERIMENTS AND
 OBSERVATIONS ON DIFFERENT KINDS OF AIR", 1774
 Job cpu time:       0 days  1 hours 18 minutes  5.8 seconds.
 Elapsed time:       0 days  0 hours  4 minutes 55.9 seconds.
 File lengths (MBytes):  RWF=    118 Int=      0 D2E=      0 Chk=     20 Scr=      1
 Normal termination of Gaussian 16 at Tue Sep 30 17:03:48 2025.
