 Entering Gaussian System, Link 0=/software/sse/easybuild/prefix/software/Gaussian/16.C.01-avx2-nsc1/g16/g16.orig
 Input=butanoate.wrap
 Output=butanoate.log
 Initial command:
 /software/sse/easybuild/prefix/software/Gaussian/16.C.01-avx2-nsc1/g16/l1.exe "/scratch/local/Gau-848265.inp" -scrdir="/scratch/local/"
 Entering Link 1 = /software/sse/easybuild/prefix/software/Gaussian/16.C.01-avx2-nsc1/g16/l1.exe PID=    848268.
  
 Copyright (c) 1988-2019, Gaussian, Inc.  All Rights Reserved.
  
 This is part of the Gaussian(R) 16 program.  It is based on
 the Gaussian(R) 09 system (copyright 2009, Gaussian, Inc.),
 the Gaussian(R) 03 system (copyright 2003, Gaussian, Inc.),
 the Gaussian(R) 98 system (copyright 1998, Gaussian, Inc.),
 the Gaussian(R) 94 system (copyright 1995, Gaussian, Inc.),
 the Gaussian 92(TM) system (copyright 1992, Gaussian, Inc.),
 the Gaussian 90(TM) system (copyright 1990, Gaussian, Inc.),
 the Gaussian 88(TM) system (copyright 1988, Gaussian, Inc.),
 the Gaussian 86(TM) system (copyright 1986, Carnegie Mellon
 University), and the Gaussian 82(TM) system (copyright 1983,
 Carnegie Mellon University). Gaussian is a federally registered
 trademark of Gaussian, Inc.
  
 This software contains proprietary and confidential information,
 including trade secrets, belonging to Gaussian, Inc.
  
 This software is provided under written license and may be
 used, copied, transmitted, or stored only in accord with that
 written license.
  
 The following legend is applicable only to US Government
 contracts under FAR:
  
                    RESTRICTED RIGHTS LEGEND
  
 Use, reproduction and disclosure by the US Government is
 subject to restrictions as set forth in subparagraphs (a)
 and (c) of the Commercial Computer Software - Restricted
 Rights clause in FAR 52.227-19.
  
 Gaussian, Inc.
 340 Quinnipiac St., Bldg. 40, Wallingford CT 06492
  
  
 ---------------------------------------------------------------
 Warning -- This program may not be used in any manner that
 competes with the business of Gaussian, Inc. or will provide
 assistance to any competitor of Gaussian, Inc.  The licensee
 of this program is prohibited from giving any competitor of
 Gaussian, Inc. access to this program.  By using this program,
 the user acknowledges that Gaussian, Inc. is engaged in the
 business of creating and licensing software in the field of
 computational chemistry and represents and warrants to the
 licensee that it is not a competitor of Gaussian, Inc. and that
 it will not use this program in any manner prohibited above.
 ---------------------------------------------------------------
  

 Cite this work as:
 Gaussian 16, Revision C.01,
 M. J. Frisch, G. W. Trucks, H. B. Schlegel, G. E. Scuseria, 
 M. A. Robb, J. R. Cheeseman, G. Scalmani, V. Barone, 
 G. A. Petersson, H. Nakatsuji, X. Li, M. Caricato, A. V. Marenich, 
 J. Bloino, B. G. Janesko, R. Gomperts, B. Mennucci, H. P. Hratchian, 
 J. V. Ortiz, A. F. Izmaylov, J. L. Sonnenberg, D. Williams-Young, 
 F. Ding, F. Lipparini, F. Egidi, J. Goings, B. Peng, A. Petrone, 
 T. Henderson, D. Ranasinghe, V. G. Zakrzewski, J. Gao, N. Rega, 
 G. Zheng, W. Liang, M. Hada, M. Ehara, K. Toyota, R. Fukuda, 
 J. Hasegawa, M. Ishida, T. Nakajima, Y. Honda, O. Kitao, H. Nakai, 
 T. Vreven, K. Throssell, J. A. Montgomery, Jr., J. E. Peralta, 
 F. Ogliaro, M. J. Bearpark, J. J. Heyd, E. N. Brothers, K. N. Kudin, 
 V. N. Staroverov, T. A. Keith, R. Kobayashi, J. Normand, 
 K. Raghavachari, A. P. Rendell, J. C. Burant, S. S. Iyengar, 
 J. Tomasi, M. Cossi, J. M. Millam, M. Klene, C. Adamo, R. Cammi, 
 J. W. Ochterski, R. L. Martin, K. Morokuma, O. Farkas, 
 J. B. Foresman, and D. J. Fox, Gaussian, Inc., Wallingford CT, 2019.
 
 ******************************************
 Gaussian 16:  ES64L-G16RevC.01  3-Jul-2019
                28-Sep-2025 
 ******************************************
 %mem=12000MB
 %nprocshared=8
 Will use up to    8 processors via shared memory.
 %chk=water19.chk
 ----------------------------------------------------------------------
 #P HF/aug-cc-pvtz Opt=(Redundant, calcall, verytight) symm=(loose,foll
 ow) Pop=(MK,Hirshfeld,ReadRadii) iop(6/33=2) iop(6/42=6) Polar Freq ma
 xdisk=128GB
 ----------------------------------------------------------------------
 1/7=1,10=4,18=20,19=15,38=1/1,3;
 2/9=110,12=2,17=4,18=3,40=1/2;
 3/5=16,6=1,7=10,11=9,25=1,30=1,71=2,140=1/1,2,3;
 4//1;
 5/5=2,38=5,98=1/2;
 8/6=4,10=90,11=11/1;
 11/6=1,8=1,9=11,15=111,16=1/1,2,10;
 10/6=1/2;
 6/7=2,8=2,9=2,10=2,15=8,18=1,20=101,28=1,33=2,42=6,79=1/1,2;
 7/10=1,25=1/1,2,3,16;
 1/7=1,10=4,18=20,19=15/3(3);
 2/9=110,15=5/2;
 7/8=1,9=1,25=1,44=-1/16;
 99//99;
 2/9=110,15=5/2;
 3/5=16,6=1,7=10,11=9,25=1,30=1,71=2,140=1/1,2,3;
 4/5=5,16=3,69=1/1;
 5/5=2,38=5,98=1/2;
 8/6=4,10=90,11=11/1;
 11/6=1,8=1,9=11,15=111,16=1/1,2,10;
 10/6=1/2;
 7/10=1,25=1/1,2,3,16;
 1/7=1,10=4,18=20,19=15/3(-8);
 2/9=110,15=5/2;
 6/7=2,8=2,9=2,10=2,15=8,18=1,19=2,20=101,28=1,33=2,42=6,79=1/1,2;
 7/8=1,9=1,25=1,44=-1/16;
 99//99;
 Leave Link    1 at Sun Sep 28 20:46:04 2025, MaxMem=  1572864000 cpu:               1.0 elap:               0.2
 (Enter /software/sse/easybuild/prefix/software/Gaussian/16.C.01-avx2-nsc1/g16/l101.exe)
 ---------
 butanoate
 ---------
 Symbolic Z-matrix:
 Charge = -1 Multiplicity = 1
 C                    -1.1191    0.1152    0.002 
 C                     0.4114    0.1852   -0.0059 
 O                     1.0285   -0.9148   -0.0211 
 O                     0.8733    1.3631    0.004 
 C                    -1.7055   -1.2917   -0.0131 
 H                    -1.4703    0.6478    0.8947 
 H                    -1.4807    0.6711   -0.8721 
 H                    -1.3518   -1.8543    0.859 
 H                    -1.3609   -1.8315   -0.903 
 C                    -3.2257   -1.264    -0.0048 
 H                    -3.6042   -0.7616    0.8911 
 H                    -3.6233   -2.2836   -0.0159 
 H                    -3.6133   -0.7388   -0.8836 
 
 ITRead=  0  0  0  0  0  0  0  0  0  0  0  0  0
 MicOpt= -1 -1 -1 -1 -1 -1 -1 -1 -1 -1 -1 -1 -1
 NAtoms=     13 NQM=       13 NQMF=       0 NMMI=      0 NMMIF=      0
                NMic=       0 NMicF=      0.
                    Isotopes and Nuclear Properties:
 (Nuclear quadrupole moments (NQMom) in fm**2, nuclear magnetic moments (NMagM)
  in nuclear magnetons)

  Atom         1           2           3           4           5           6           7           8           9          10
 IAtWgt=          12          12          16          16          12           1           1           1           1          12
 AtmWgt=  12.0000000  12.0000000  15.9949146  15.9949146  12.0000000   1.0078250   1.0078250   1.0078250   1.0078250  12.0000000
 NucSpn=           0           0           0           0           0           1           1           1           1           0
 AtZEff=  -0.0000000  -0.0000000  -0.0000000  -0.0000000  -0.0000000  -0.0000000  -0.0000000  -0.0000000  -0.0000000  -0.0000000
 NQMom=    0.0000000   0.0000000   0.0000000   0.0000000   0.0000000   0.0000000   0.0000000   0.0000000   0.0000000   0.0000000
 NMagM=    0.0000000   0.0000000   0.0000000   0.0000000   0.0000000   2.7928460   2.7928460   2.7928460   2.7928460   0.0000000
 AtZNuc=   6.0000000   6.0000000   8.0000000   8.0000000   6.0000000   1.0000000   1.0000000   1.0000000   1.0000000   6.0000000

  Atom        11          12          13
 IAtWgt=           1           1           1
 AtmWgt=   1.0078250   1.0078250   1.0078250
 NucSpn=           1           1           1
 AtZEff=  -0.0000000  -0.0000000  -0.0000000
 NQMom=    0.0000000   0.0000000   0.0000000
 NMagM=    2.7928460   2.7928460   2.7928460
 AtZNuc=   1.0000000   1.0000000   1.0000000
 Leave Link  101 at Sun Sep 28 20:46:04 2025, MaxMem=  1572864000 cpu:               2.7 elap:               0.4
 (Enter /software/sse/easybuild/prefix/software/Gaussian/16.C.01-avx2-nsc1/g16/l103.exe)

 GradGradGradGradGradGradGradGradGradGradGradGradGradGradGradGradGradGrad
 Berny optimization.
 Initialization pass.
                           ----------------------------
                           !    Initial Parameters    !
                           ! (Angstroms and Degrees)  !
 --------------------------                            --------------------------
 ! Name  Definition              Value          Derivative Info.                !
 --------------------------------------------------------------------------------
 ! R1    R(1,2)                  1.5321         calculate D2E/DX2 analytically  !
 ! R2    R(1,5)                  1.5243         calculate D2E/DX2 analytically  !
 ! R3    R(1,6)                  1.0972         calculate D2E/DX2 analytically  !
 ! R4    R(1,7)                  1.0972         calculate D2E/DX2 analytically  !
 ! R5    R(2,3)                  1.2614         calculate D2E/DX2 analytically  !
 ! R6    R(2,4)                  1.2653         calculate D2E/DX2 analytically  !
 ! R7    R(5,8)                  1.0964         calculate D2E/DX2 analytically  !
 ! R8    R(5,9)                  1.0964         calculate D2E/DX2 analytically  !
 ! R9    R(5,10)                 1.5205         calculate D2E/DX2 analytically  !
 ! R10   R(10,11)                1.0947         calculate D2E/DX2 analytically  !
 ! R11   R(10,12)                1.0944         calculate D2E/DX2 analytically  !
 ! R12   R(10,13)                1.0947         calculate D2E/DX2 analytically  !
 ! A1    A(2,1,5)              115.2403         calculate D2E/DX2 analytically  !
 ! A2    A(2,1,6)              107.5632         calculate D2E/DX2 analytically  !
 ! A3    A(2,1,7)              107.5756         calculate D2E/DX2 analytically  !
 ! A4    A(5,1,6)              109.4476         calculate D2E/DX2 analytically  !
 ! A5    A(5,1,7)              109.4485         calculate D2E/DX2 analytically  !
 ! A6    A(6,1,7)              107.2622         calculate D2E/DX2 analytically  !
 ! A7    A(1,2,3)              116.6752         calculate D2E/DX2 analytically  !
 ! A8    A(1,2,4)              114.0271         calculate D2E/DX2 analytically  !
 ! A9    A(3,2,4)              129.2977         calculate D2E/DX2 analytically  !
 ! A10   A(1,5,8)              109.9755         calculate D2E/DX2 analytically  !
 ! A11   A(1,5,9)              109.9716         calculate D2E/DX2 analytically  !
 ! A12   A(1,5,10)             111.5778         calculate D2E/DX2 analytically  !
 ! A13   A(8,5,9)              106.9522         calculate D2E/DX2 analytically  !
 ! A14   A(8,5,10)             109.1194         calculate D2E/DX2 analytically  !
 ! A15   A(9,5,10)             109.1262         calculate D2E/DX2 analytically  !
 ! A16   A(5,10,11)            111.0101         calculate D2E/DX2 analytically  !
 ! A17   A(5,10,12)            110.255          calculate D2E/DX2 analytically  !
 ! A18   A(5,10,13)            110.9998         calculate D2E/DX2 analytically  !
 ! A19   A(11,10,12)           108.0746         calculate D2E/DX2 analytically  !
 ! A20   A(11,10,13)           108.3243         calculate D2E/DX2 analytically  !
 ! A21   A(12,10,13)           108.0706         calculate D2E/DX2 analytically  !
 ! D1    D(5,1,2,3)             -0.1425         calculate D2E/DX2 analytically  !
 ! D2    D(5,1,2,4)            179.8558         calculate D2E/DX2 analytically  !
 ! D3    D(6,1,2,3)            122.2215         calculate D2E/DX2 analytically  !
 ! D4    D(6,1,2,4)            -57.7802         calculate D2E/DX2 analytically  !
 ! D5    D(7,1,2,3)           -122.5171         calculate D2E/DX2 analytically  !
 ! D6    D(7,1,2,4)             57.4812         calculate D2E/DX2 analytically  !
 ! D7    D(2,1,5,8)             58.8004         calculate D2E/DX2 analytically  !
 ! D8    D(2,1,5,9)            -58.7276         calculate D2E/DX2 analytically  !
 ! D9    D(2,1,5,10)          -179.9666         calculate D2E/DX2 analytically  !
 ! D10   D(6,1,5,8)            -62.5485         calculate D2E/DX2 analytically  !
 ! D11   D(6,1,5,9)            179.9235         calculate D2E/DX2 analytically  !
 ! D12   D(6,1,5,10)            58.6845         calculate D2E/DX2 analytically  !
 ! D13   D(7,1,5,8)           -179.8338         calculate D2E/DX2 analytically  !
 ! D14   D(7,1,5,9)             62.6382         calculate D2E/DX2 analytically  !
 ! D15   D(7,1,5,10)           -58.6008         calculate D2E/DX2 analytically  !
 ! D16   D(1,5,10,11)          -60.2661         calculate D2E/DX2 analytically  !
 ! D17   D(1,5,10,12)          179.9992         calculate D2E/DX2 analytically  !
 ! D18   D(1,5,10,13)           60.2761         calculate D2E/DX2 analytically  !
 ! D19   D(8,5,10,11)           61.4633         calculate D2E/DX2 analytically  !
 ! D20   D(8,5,10,12)          -58.2714         calculate D2E/DX2 analytically  !
 ! D21   D(8,5,10,13)         -177.9945         calculate D2E/DX2 analytically  !
 ! D22   D(9,5,10,11)          178.0047         calculate D2E/DX2 analytically  !
 ! D23   D(9,5,10,12)           58.27           calculate D2E/DX2 analytically  !
 ! D24   D(9,5,10,13)          -61.4531         calculate D2E/DX2 analytically  !
 --------------------------------------------------------------------------------
 Trust Radius=3.00D-01 FncErr=1.00D-07 GrdErr=1.00D-07 EigMax=2.50D+02 EigMin=1.00D-04
 Number of steps in this run=     67 maximum allowed number of steps=    100.
 GradGradGradGradGradGradGradGradGradGradGradGradGradGradGradGradGradGrad

 Leave Link  103 at Sun Sep 28 20:46:04 2025, MaxMem=  1572864000 cpu:               0.1 elap:               0.0
 (Enter /software/sse/easybuild/prefix/software/Gaussian/16.C.01-avx2-nsc1/g16/l202.exe)
                          Input orientation:                          
 ---------------------------------------------------------------------
 Center     Atomic      Atomic             Coordinates (Angstroms)
 Number     Number       Type             X           Y           Z
 ---------------------------------------------------------------------
      1          6           0       -1.119100    0.115200    0.002000
      2          6           0        0.411400    0.185200   -0.005900
      3          8           0        1.028500   -0.914800   -0.021100
      4          8           0        0.873300    1.363100    0.004000
      5          6           0       -1.705500   -1.291700   -0.013100
      6          1           0       -1.470300    0.647800    0.894700
      7          1           0       -1.480700    0.671100   -0.872100
      8          1           0       -1.351800   -1.854300    0.859000
      9          1           0       -1.360900   -1.831500   -0.903000
     10          6           0       -3.225700   -1.264000   -0.004800
     11          1           0       -3.604200   -0.761600    0.891100
     12          1           0       -3.623300   -2.283600   -0.015900
     13          1           0       -3.613300   -0.738800   -0.883600
 ---------------------------------------------------------------------
                    Distance matrix (angstroms):
                    1          2          3          4          5
     1  C    0.000000
     2  C    1.532120   0.000000
     3  O    2.381936   1.261366   0.000000
     4  O    2.350939   1.265266   2.283319   0.000000
     5  C    1.524290   2.581192   2.759868   3.701144   0.000000
     6  H    1.097232   2.136791   3.086164   2.607194   2.154317
     7  H    1.097192   2.136924   3.087939   2.605327   2.154298
     8  H    2.160446   2.831340   2.706116   4.004217   1.096440
     9  H    2.160355   2.830709   2.706902   4.002470   1.096383
    10  C    2.517936   3.915186   4.268539   4.868627   1.520475
    11  H    2.781187   4.222095   4.724139   5.034809   2.168789
    12  H    3.467792   4.730103   4.849009   5.789493   2.159127
    13  H    2.781122   4.221652   4.724531   5.033428   2.168679
                    6          7          8          9         10
     6  H    0.000000
     7  H    1.766984   0.000000
     8  H    2.505159   3.064469   0.000000
     9  H    3.064412   2.505656   1.762171   0.000000
    10  C    2.746909   2.746242   2.146184   2.146229   0.000000
    11  H    2.557333   3.109784   2.503663   3.065269   1.094671
    12  H    3.749361   3.748875   2.471732   2.471800   1.094437
    13  H    3.110862   2.556547   3.065188   2.503533   1.094696
                   11         12         13
    11  H    0.000000
    12  H    1.771863   0.000000
    13  H    1.774870   1.771838   0.000000
 Stoichiometry    C4H7O2(1-)
 Framework group  C1[X(C4H7O2)]
 Deg. of freedom    33
 Full point group                 C1      NOp   1
 Largest Abelian subgroup         C1      NOp   1
 Largest concise Abelian subgroup C1      NOp   1
                         Standard orientation:                         
 ---------------------------------------------------------------------
 Center     Atomic      Atomic             Coordinates (Angstroms)
 Number     Number       Type             X           Y           Z
 ---------------------------------------------------------------------
      1          6           0        0.143607   -0.571961    0.001340
      2          6           0       -1.273153    0.011291    0.000149
      3          8           0       -1.367712    1.269108    0.000388
      4          8           0       -2.189470   -0.861211   -0.000983
      5          6           0        1.269520    0.455548   -0.000753
      6          1           0        0.236604   -1.214004    0.886241
      7          1           0        0.236765   -1.217785   -0.880739
      8          1           0        1.186353    1.104131    0.879363
      9          1           0        1.185546    1.101294   -0.882806
     10          6           0        2.635666   -0.211903   -0.000214
     11          1           0        2.766165   -0.838148    0.888094
     12          1           0        3.426822    0.544314   -0.001754
     13          1           0        2.765362   -0.840829   -0.886774
 ---------------------------------------------------------------------
 Rotational constants (GHZ):           8.9555181           1.9263065           1.6337464
 Leave Link  202 at Sun Sep 28 20:46:04 2025, MaxMem=  1572864000 cpu:               0.0 elap:               0.0
 (Enter /software/sse/easybuild/prefix/software/Gaussian/16.C.01-avx2-nsc1/g16/l301.exe)
 Standard basis: Aug-CC-pVTZ (5D, 7F)
 Ernie: Thresh=  0.10000D-02 Tol=  0.10000D-05 Strict=F.
 Ernie:  18 primitive shells out of 257 were deleted.
 There are   505 symmetry adapted cartesian basis functions of A   symmetry.
 There are   437 symmetry adapted basis functions of A   symmetry.
   437 basis functions,   621 primitive gaussians,   505 cartesian basis functions
    24 alpha electrons       24 beta electrons
       nuclear repulsion energy       228.2558220548 Hartrees.
 IExCor=    0 DFT=F Ex=HF Corr=None ExCW=0 ScaHFX=  1.000000
 ScaDFX=  1.000000  1.000000  1.000000  1.000000 ScalE2=  1.000000  1.000000
 IRadAn=      5 IRanWt=     -1 IRanGd=            0 ICorTp=0 IEmpDi=  4
 NAtoms=   13 NActive=   13 NUniq=   13 SFac= 1.00D+00 NAtFMM=   60 NAOKFM=F Big=F
 Integral buffers will be    131072 words long.
 Raffenetti 1 integral format.
 Two-electron integral symmetry is turned on.
 Leave Link  301 at Sun Sep 28 20:46:04 2025, MaxMem=  1572864000 cpu:               0.4 elap:               0.1
 (Enter /software/sse/easybuild/prefix/software/Gaussian/16.C.01-avx2-nsc1/g16/l302.exe)
 NPDir=0 NMtPBC=     1 NCelOv=     1 NCel=       1 NClECP=     1 NCelD=      1
         NCelK=      1 NCelE2=     1 NClLst=     1 CellRange=     0.0.
 One-electron integrals computed using PRISM.
 One-electron integral symmetry used in STVInt
 NBasis=   437 RedAO= T EigKep=  1.04D-05  NBF=   437
 NBsUse=   437 1.00D-06 EigRej= -1.00D+00 NBFU=   437
 Leave Link  302 at Sun Sep 28 20:46:05 2025, MaxMem=  1572864000 cpu:               1.9 elap:               0.3
 (Enter /software/sse/easybuild/prefix/software/Gaussian/16.C.01-avx2-nsc1/g16/l303.exe)
 DipDrv:  MaxL=1.
 Leave Link  303 at Sun Sep 28 20:46:05 2025, MaxMem=  1572864000 cpu:               0.4 elap:               0.1
 (Enter /software/sse/easybuild/prefix/software/Gaussian/16.C.01-avx2-nsc1/g16/l401.exe)
 ExpMin= 2.53D-02 ExpMax= 1.53D+04 ExpMxC= 5.22D+02 IAcc=3 IRadAn=         5 AccDes= 0.00D+00
 Harris functional with IExCor=  205 and IRadAn=       5 diagonalized for initial guess.
 HarFok:  IExCor=  205 AccDes= 0.00D+00 IRadAn=         5 IDoV= 1 UseB2=F ITyADJ=14
 ICtDFT=  3500011 ScaDFX=  1.000000  1.000000  1.000000  1.000000
 FoFCou: FMM=F IPFlag=           0 FMFlag=      100000 FMFlg1=           0
         NFxFlg=           0 DoJE=T BraDBF=F KetDBF=T FulRan=T
         wScrn=  0.000000 ICntrl=       500 IOpCl=  0 I1Cent=   200000004 NGrid=           0
         NMat0=    1 NMatS0=      1 NMatT0=    0 NMatD0=    1 NMtDS0=    0 NMtDT0=    0
 Petite list used in FoFCou.
 Harris En= -306.064099484207    
 JPrj=0 DoOrth=F DoCkMO=F.
 Leave Link  401 at Sun Sep 28 20:46:06 2025, MaxMem=  1572864000 cpu:               7.0 elap:               0.9
 (Enter /software/sse/easybuild/prefix/software/Gaussian/16.C.01-avx2-nsc1/g16/l502.exe)
 Integral symmetry usage will be decided dynamically.
 Closed shell SCF:
 Using DIIS extrapolation, IDIIS=  1040.
 NGot=  1572864000 LenX=  1572345428 LenY=  1572089898
 Requested convergence on RMS density matrix=1.00D-08 within 128 cycles.
 Requested convergence on MAX density matrix=1.00D-06.
 Requested convergence on             energy=1.00D-06.
 No special actions if energy rises.
 Fock matrices will be formed incrementally for  20 cycles.

 Cycle   1  Pass 1  IDiag  1:
 FoFJK:  IHMeth= 1 ICntrl=       0 DoSepK=F KAlg= 0 I1Cent=           0 FoldK=F
 IRaf= 980000000 NMat=       1 IRICut=       1 DoRegI=T DoRafI=F ISym2E= 0 IDoP0=0 IntGTp=1.
 FoFCou: FMM=F IPFlag=           0 FMFlag=      100000 FMFlg1=           0
         NFxFlg=           0 DoJE=F BraDBF=F KetDBF=F FulRan=T
         wScrn=  0.000000 ICntrl=         0 IOpCl=  0 I1Cent=           0 NGrid=           0
         NMat0=    1 NMatS0=      1 NMatT0=    0 NMatD0=    1 NMtDS0=    0 NMtDT0=    0
 Symmetry not used in FoFCou.
 E= -305.002432396825    
 DIIS: error= 3.91D-02 at cycle   1 NSaved=   1.
 NSaved= 1 IEnMin= 1 EnMin= -305.002432396825     IErMin= 1 ErrMin= 3.91D-02
 ErrMax= 3.91D-02  0.00D+00 EMaxC= 1.00D-01 BMatC= 7.70D-01 BMatP= 7.70D-01
 IDIUse=3 WtCom= 6.09D-01 WtEn= 3.91D-01
 Coeff-Com:  0.100D+01
 Coeff-En:   0.100D+01
 Coeff:      0.100D+01
 Gap=     0.565 Goal=   None    Shift=    0.000
 GapD=    0.565 DampG=2.000 DampE=0.500 DampFc=1.0000 IDamp=-1.
 RMSDP=2.18D-03 MaxDP=9.13D-02              OVMax= 1.44D-01

 Cycle   2  Pass 1  IDiag  1:
 RMSU=  2.11D-03    CP:  9.26D-01
 E= -305.331192565601     Delta-E=       -0.328760168777 Rises=F Damp=F
 DIIS: error= 1.75D-02 at cycle   2 NSaved=   2.
 NSaved= 2 IEnMin= 2 EnMin= -305.331192565601     IErMin= 2 ErrMin= 1.75D-02
 ErrMax= 1.75D-02  0.00D+00 EMaxC= 1.00D-01 BMatC= 1.25D-01 BMatP= 7.70D-01
 IDIUse=3 WtCom= 8.25D-01 WtEn= 1.75D-01
 Coeff-Com:  0.233D+00 0.767D+00
 Coeff-En:   0.000D+00 0.100D+01
 Coeff:      0.193D+00 0.807D+00
 Gap=     0.330 Goal=   None    Shift=    0.000
 RMSDP=9.94D-04 MaxDP=5.39D-02 DE=-3.29D-01 OVMax= 6.70D-02

 Cycle   3  Pass 1  IDiag  1:
 RMSU=  8.59D-04    CP:  9.47D-01  7.74D-01
 E= -305.415740329949     Delta-E=       -0.084547764348 Rises=F Damp=F
 DIIS: error= 6.83D-03 at cycle   3 NSaved=   3.
 NSaved= 3 IEnMin= 3 EnMin= -305.415740329949     IErMin= 3 ErrMin= 6.83D-03
 ErrMax= 6.83D-03  0.00D+00 EMaxC= 1.00D-01 BMatC= 1.17D-02 BMatP= 1.25D-01
 IDIUse=3 WtCom= 9.32D-01 WtEn= 6.83D-02
 Coeff-Com: -0.210D-01 0.201D+00 0.820D+00
 Coeff-En:   0.000D+00 0.000D+00 0.100D+01
 Coeff:     -0.196D-01 0.188D+00 0.832D+00
 Gap=     0.302 Goal=   None    Shift=    0.000
 RMSDP=1.66D-04 MaxDP=7.50D-03 DE=-8.45D-02 OVMax= 1.72D-02

 Cycle   4  Pass 1  IDiag  1:
 RMSU=  1.47D-04    CP:  9.44D-01  8.09D-01  9.82D-01
 E= -305.423230343177     Delta-E=       -0.007490013228 Rises=F Damp=F
 DIIS: error= 1.32D-03 at cycle   4 NSaved=   4.
 NSaved= 4 IEnMin= 4 EnMin= -305.423230343177     IErMin= 4 ErrMin= 1.32D-03
 ErrMax= 1.32D-03  0.00D+00 EMaxC= 1.00D-01 BMatC= 4.71D-04 BMatP= 1.17D-02
 IDIUse=3 WtCom= 9.87D-01 WtEn= 1.32D-02
 Coeff-Com: -0.107D-01 0.356D-01 0.244D+00 0.731D+00
 Coeff-En:   0.000D+00 0.000D+00 0.000D+00 0.100D+01
 Coeff:     -0.105D-01 0.351D-01 0.241D+00 0.735D+00
 Gap=     0.297 Goal=   None    Shift=    0.000
 RMSDP=4.96D-05 MaxDP=2.83D-03 DE=-7.49D-03 OVMax= 4.51D-03

 Cycle   5  Pass 1  IDiag  1:
 RMSU=  4.37D-05    CP:  9.44D-01  8.03D-01  1.00D+00  1.04D+00
 E= -305.423657382938     Delta-E=       -0.000427039761 Rises=F Damp=F
 DIIS: error= 3.22D-04 at cycle   5 NSaved=   5.
 NSaved= 5 IEnMin= 5 EnMin= -305.423657382938     IErMin= 5 ErrMin= 3.22D-04
 ErrMax= 3.22D-04  0.00D+00 EMaxC= 1.00D-01 BMatC= 3.14D-05 BMatP= 4.71D-04
 IDIUse=3 WtCom= 9.97D-01 WtEn= 3.22D-03
 Coeff-Com:  0.253D-02-0.219D-01-0.103D+00 0.956D-04 0.112D+01
 Coeff-En:   0.000D+00 0.000D+00 0.000D+00 0.000D+00 0.100D+01
 Coeff:      0.252D-02-0.218D-01-0.103D+00 0.953D-04 0.112D+01
 Gap=     0.297 Goal=   None    Shift=    0.000
 RMSDP=3.70D-05 MaxDP=2.64D-03 DE=-4.27D-04 OVMax= 2.28D-03

 Cycle   6  Pass 1  IDiag  1:
 RMSU=  1.38D-05    CP:  9.45D-01  7.96D-01  1.02D+00  1.19D+00  1.31D+00
 E= -305.423708831452     Delta-E=       -0.000051448514 Rises=F Damp=F
 DIIS: error= 6.96D-05 at cycle   6 NSaved=   6.
 NSaved= 6 IEnMin= 6 EnMin= -305.423708831452     IErMin= 6 ErrMin= 6.96D-05
 ErrMax= 6.96D-05  0.00D+00 EMaxC= 1.00D-01 BMatC= 1.27D-06 BMatP= 3.14D-05
 IDIUse=1 WtCom= 1.00D+00 WtEn= 0.00D+00
 Coeff-Com:  0.854D-03-0.462D-02-0.235D-01-0.385D-01 0.728D-01 0.993D+00
 Coeff:      0.854D-03-0.462D-02-0.235D-01-0.385D-01 0.728D-01 0.993D+00
 Gap=     0.297 Goal=   None    Shift=    0.000
 RMSDP=8.26D-06 MaxDP=5.53D-04 DE=-5.14D-05 OVMax= 6.26D-04

 Cycle   7  Pass 1  IDiag  1:
 RMSU=  3.05D-06    CP:  9.45D-01  7.94D-01  1.03D+00  1.22D+00  1.39D+00
                    CP:  1.16D+00
 E= -305.423711379259     Delta-E=       -0.000002547808 Rises=F Damp=F
 DIIS: error= 1.81D-05 at cycle   7 NSaved=   7.
 NSaved= 7 IEnMin= 7 EnMin= -305.423711379259     IErMin= 7 ErrMin= 1.81D-05
 ErrMax= 1.81D-05  0.00D+00 EMaxC= 1.00D-01 BMatC= 1.42D-07 BMatP= 1.27D-06
 IDIUse=1 WtCom= 1.00D+00 WtEn= 0.00D+00
 Coeff-Com: -0.254D-04 0.765D-03 0.367D-02-0.594D-02-0.742D-01 0.182D+00
 Coeff-Com:  0.893D+00
 Coeff:     -0.254D-04 0.765D-03 0.367D-02-0.594D-02-0.742D-01 0.182D+00
 Coeff:      0.893D+00
 Gap=     0.297 Goal=   None    Shift=    0.000
 RMSDP=1.83D-06 MaxDP=1.06D-04 DE=-2.55D-06 OVMax= 1.99D-04

 Cycle   8  Pass 1  IDiag  1:
 RMSU=  8.97D-07    CP:  9.45D-01  7.94D-01  1.03D+00  1.22D+00  1.40D+00
                    CP:  1.23D+00  1.17D+00
 E= -305.423711590905     Delta-E=       -0.000000211646 Rises=F Damp=F
 DIIS: error= 6.33D-06 at cycle   8 NSaved=   8.
 NSaved= 8 IEnMin= 8 EnMin= -305.423711590905     IErMin= 8 ErrMin= 6.33D-06
 ErrMax= 6.33D-06  0.00D+00 EMaxC= 1.00D-01 BMatC= 1.91D-08 BMatP= 1.42D-07
 IDIUse=1 WtCom= 1.00D+00 WtEn= 0.00D+00
 Coeff-Com: -0.931D-04 0.669D-03 0.319D-02 0.291D-02-0.240D-01-0.584D-01
 Coeff-Com:  0.170D+00 0.906D+00
 Coeff:     -0.931D-04 0.669D-03 0.319D-02 0.291D-02-0.240D-01-0.584D-01
 Coeff:      0.170D+00 0.906D+00
 Gap=     0.297 Goal=   None    Shift=    0.000
 RMSDP=6.30D-07 MaxDP=3.34D-05 DE=-2.12D-07 OVMax= 7.25D-05

 Cycle   9  Pass 1  IDiag  1:
 RMSU=  3.57D-07    CP:  9.45D-01  7.94D-01  1.03D+00  1.22D+00  1.40D+00
                    CP:  1.25D+00  1.28D+00  1.26D+00
 E= -305.423711617351     Delta-E=       -0.000000026445 Rises=F Damp=F
 DIIS: error= 2.84D-06 at cycle   9 NSaved=   9.
 NSaved= 9 IEnMin= 9 EnMin= -305.423711617351     IErMin= 9 ErrMin= 2.84D-06
 ErrMax= 2.84D-06  0.00D+00 EMaxC= 1.00D-01 BMatC= 3.04D-09 BMatP= 1.91D-08
 IDIUse=1 WtCom= 1.00D+00 WtEn= 0.00D+00
 Coeff-Com: -0.285D-04 0.118D-03 0.484D-03 0.199D-02 0.303D-02-0.442D-01
 Coeff-Com: -0.843D-01 0.244D+00 0.879D+00
 Coeff:     -0.285D-04 0.118D-03 0.484D-03 0.199D-02 0.303D-02-0.442D-01
 Coeff:     -0.843D-01 0.244D+00 0.879D+00
 Gap=     0.297 Goal=   None    Shift=    0.000
 RMSDP=2.38D-07 MaxDP=1.07D-05 DE=-2.64D-08 OVMax= 3.03D-05

 Cycle  10  Pass 1  IDiag  1:
 RMSU=  1.17D-07    CP:  9.45D-01  7.94D-01  1.03D+00  1.22D+00  1.40D+00
                    CP:  1.26D+00  1.32D+00  1.40D+00  1.22D+00
 E= -305.423711622097     Delta-E=       -0.000000004746 Rises=F Damp=F
 DIIS: error= 7.73D-07 at cycle  10 NSaved=  10.
 NSaved=10 IEnMin=10 EnMin= -305.423711622097     IErMin=10 ErrMin= 7.73D-07
 ErrMax= 7.73D-07  0.00D+00 EMaxC= 1.00D-01 BMatC= 2.17D-10 BMatP= 3.04D-09
 IDIUse=1 WtCom= 1.00D+00 WtEn= 0.00D+00
 Coeff-Com:  0.950D-05-0.646D-04-0.335D-03-0.298D-03 0.196D-02 0.816D-02
 Coeff-Com: -0.928D-02-0.124D+00-0.262D-01 0.115D+01
 Coeff:      0.950D-05-0.646D-04-0.335D-03-0.298D-03 0.196D-02 0.816D-02
 Coeff:     -0.928D-02-0.124D+00-0.262D-01 0.115D+01
 Gap=     0.297 Goal=   None    Shift=    0.000
 RMSDP=9.49D-08 MaxDP=6.34D-06 DE=-4.75D-09 OVMax= 9.99D-06

 Cycle  11  Pass 1  IDiag  1:
 RMSU=  3.94D-08    CP:  9.45D-01  7.94D-01  1.03D+00  1.22D+00  1.40D+00
                    CP:  1.26D+00  1.32D+00  1.45D+00  1.40D+00  1.31D+00
 E= -305.423711622585     Delta-E=       -0.000000000488 Rises=F Damp=F
 DIIS: error= 2.10D-07 at cycle  11 NSaved=  11.
 NSaved=11 IEnMin=11 EnMin= -305.423711622585     IErMin=11 ErrMin= 2.10D-07
 ErrMax= 2.10D-07  0.00D+00 EMaxC= 1.00D-01 BMatC= 1.25D-11 BMatP= 2.17D-10
 IDIUse=1 WtCom= 1.00D+00 WtEn= 0.00D+00
 Coeff-Com:  0.294D-06 0.254D-05 0.245D-04-0.660D-04-0.605D-03 0.165D-02
 Coeff-Com:  0.918D-02-0.437D-02-0.504D-01-0.149D+00 0.119D+01
 Coeff:      0.294D-06 0.254D-05 0.245D-04-0.660D-04-0.605D-03 0.165D-02
 Coeff:      0.918D-02-0.437D-02-0.504D-01-0.149D+00 0.119D+01
 Gap=     0.297 Goal=   None    Shift=    0.000
 RMSDP=2.31D-08 MaxDP=1.37D-06 DE=-4.88D-10 OVMax= 3.42D-06

 Cycle  12  Pass 1  IDiag  1:
 RMSU=  1.15D-08    CP:  9.45D-01  7.94D-01  1.03D+00  1.22D+00  1.40D+00
                    CP:  1.26D+00  1.32D+00  1.44D+00  1.42D+00  1.38D+00
                    CP:  1.34D+00
 E= -305.423711622621     Delta-E=       -0.000000000037 Rises=F Damp=F
 DIIS: error= 8.00D-08 at cycle  12 NSaved=  12.
 NSaved=12 IEnMin=12 EnMin= -305.423711622621     IErMin=12 ErrMin= 8.00D-08
 ErrMax= 8.00D-08  0.00D+00 EMaxC= 1.00D-01 BMatC= 1.74D-12 BMatP= 1.25D-11
 IDIUse=1 WtCom= 1.00D+00 WtEn= 0.00D+00
 Coeff-Com: -0.660D-06 0.465D-05 0.219D-04 0.308D-04-0.732D-04-0.936D-03
 Coeff-Com:  0.247D-03 0.904D-02 0.112D-01-0.928D-01-0.812D-01 0.115D+01
 Coeff:     -0.660D-06 0.465D-05 0.219D-04 0.308D-04-0.732D-04-0.936D-03
 Coeff:      0.247D-03 0.904D-02 0.112D-01-0.928D-01-0.812D-01 0.115D+01
 Gap=     0.297 Goal=   None    Shift=    0.000
 RMSDP=8.94D-09 MaxDP=6.15D-07 DE=-3.68D-11 OVMax= 1.36D-06

 SCF Done:  E(RHF) =  -305.423711623     A.U. after   12 cycles
            NFock= 12  Conv=0.89D-08     -V/T= 2.0014
 KE= 3.050015304415D+02 PE=-1.184028607157D+03 EE= 3.453475430384D+02
 Leave Link  502 at Sun Sep 28 20:48:42 2025, MaxMem=  1572864000 cpu:            1244.4 elap:             156.8
 (Enter /software/sse/easybuild/prefix/software/Gaussian/16.C.01-avx2-nsc1/g16/l801.exe)
 Range of M.O.s used for correlation:     1   437
 NBasis=   437 NAE=    24 NBE=    24 NFC=     0 NFV=     0
 NROrb=    437 NOA=    24 NOB=    24 NVA=   413 NVB=   413

 **** Warning!!: The largest alpha MO coefficient is  0.64315724D+02

 Leave Link  801 at Sun Sep 28 20:48:42 2025, MaxMem=  1572864000 cpu:               0.2 elap:               0.0
 (Enter /software/sse/easybuild/prefix/software/Gaussian/16.C.01-avx2-nsc1/g16/l1101.exe)
 Using compressed storage, NAtomX=    13.
 Will process     14 centers per pass.
 Leave Link 1101 at Sun Sep 28 20:48:43 2025, MaxMem=  1572864000 cpu:               2.8 elap:               0.4
 (Enter /software/sse/easybuild/prefix/software/Gaussian/16.C.01-avx2-nsc1/g16/l1102.exe)
 Symmetrizing basis deriv contribution to polar:
 IMax=3 JMax=2 DiffMx= 0.00D+00
 Leave Link 1102 at Sun Sep 28 20:48:43 2025, MaxMem=  1572864000 cpu:               0.3 elap:               0.1
 (Enter /software/sse/easybuild/prefix/software/Gaussian/16.C.01-avx2-nsc1/g16/l1110.exe)
 Forming Gx(P) for the SCF density, NAtomX=    13.
 Integral derivatives from FoFJK, PRISM(SPDF).
 Do as many integral derivatives as possible in FoFJK.
 G2DrvN: MDV=    1572862525.
 G2DrvN: will do    14 centers at a time, making    1 passes.
 Calling FoFCou, ICntrl=  3107 FMM=F I1Cent=   0 AccDes= 0.00D+00.
 FoFJK:  IHMeth= 1 ICntrl=    3107 DoSepK=F KAlg= 0 I1Cent=           0 FoldK=F
 IRaf=         0 NMat=       1 IRICut=       1 DoRegI=T DoRafI=F ISym2E= 0 IDoP0=0 IntGTp=1.
 FoFCou: FMM=F IPFlag=           0 FMFlag=      100000 FMFlg1=           0
         NFxFlg=           0 DoJE=F BraDBF=F KetDBF=F FulRan=T
         wScrn=  0.000000 ICntrl=      3107 IOpCl=  0 I1Cent=           0 NGrid=           0
         NMat0=    1 NMatS0=      1 NMatT0=    0 NMatD0=    1 NMtDS0=    0 NMtDT0=    0
 Symmetry not used in FoFCou.
 End of G2Drv F.D. properties file   721 does not exist.
 End of G2Drv F.D. properties file   722 does not exist.
 End of G2Drv F.D. properties file   788 does not exist.
 Leave Link 1110 at Sun Sep 28 20:50:50 2025, MaxMem=  1572864000 cpu:            1006.8 elap:             126.8
 (Enter /software/sse/easybuild/prefix/software/Gaussian/16.C.01-avx2-nsc1/g16/l1002.exe)
 Minotr:  Closed shell wavefunction.
          IDoAtm=1111111111111
          Direct CPHF calculation.
          Differentiating once with respect to electric field.
                with respect to dipole field.
          Differentiating once with respect to nuclear coordinates.
          Requested convergence is 1.0D-08 RMS, and 1.0D-07 maximum.
          Secondary convergence is 1.0D-12 RMS, and 1.0D-12 maximum.
          NewPWx=T KeepS1=F KeepF1=F KeepIn=T MapXYZ=F SortEE=F KeepMc=T.
 Two-electron integrals replicated using symmetry.
          MDV=    1572864000 using IRadAn=       1.
          Solving linear equations simultaneously, MaxMat=     384.
 FoF2E skips out because all densities are zero.
 FoFJK:  IHMeth= 1 ICntrl=       0 DoSepK=F KAlg= 0 I1Cent=           0 FoldK=F
 IRaf= 980000000 NMat=      39 IRICut=      97 DoRegI=T DoRafI=T ISym2E= 2 IDoP0=3 IntGTp=3.
 FoFCou: FMM=F IPFlag=           0 FMFlag=      100000 FMFlg1=           0
         NFxFlg=           0 DoJE=F BraDBF=F KetDBF=F FulRan=T
         wScrn=  0.000000 ICntrl=         0 IOpCl=  0 I1Cent=           0 NGrid=           0
         NMat0=   39 NMatS0=     39 NMatT0=    0 NMatD0=   39 NMtDS0=    0 NMtDT0=    0
 Integrals replicated using symmetry in FoFCou.
 Raff kept on since  97.45% of shell-pairs survive, threshold=   0.20 IRatSp=97.
          There are    42 degrees of freedom in the 1st order CPHF.  IDoFFX=6 NUNeed=     3.
     39 vectors produced by pass  0 Test12= 2.36D-14 2.38D-09 XBig12= 1.78D+01 8.80D-01.
 AX will form    39 AO Fock derivatives at one time.
     39 vectors produced by pass  1 Test12= 2.36D-14 2.38D-09 XBig12= 1.21D+00 1.53D-01.
     39 vectors produced by pass  2 Test12= 2.36D-14 2.38D-09 XBig12= 3.84D-02 2.55D-02.
     39 vectors produced by pass  3 Test12= 2.36D-14 2.38D-09 XBig12= 8.68D-04 3.56D-03.
     39 vectors produced by pass  4 Test12= 2.36D-14 2.38D-09 XBig12= 1.20D-05 5.11D-04.
     39 vectors produced by pass  5 Test12= 2.36D-14 2.38D-09 XBig12= 1.46D-07 5.04D-05.
     39 vectors produced by pass  6 Test12= 2.36D-14 2.38D-09 XBig12= 1.42D-09 5.16D-06.
     13 vectors produced by pass  7 Test12= 2.36D-14 2.38D-09 XBig12= 1.02D-11 3.84D-07.
      4 vectors produced by pass  8 Test12= 2.36D-14 2.38D-09 XBig12= 6.74D-14 2.99D-08.
 InvSVY:  IOpt=1 It=  1 EMax= 2.22D-15
 Solved reduced A of dimension   290 with    42 vectors.
 FullF1:  Do perturbations      1 to       3.
 Isotropic polarizability for W=    0.000000       60.90 Bohr**3.
 End of Minotr F.D. properties file   721 does not exist.
 End of Minotr F.D. properties file   722 does not exist.
 End of Minotr F.D. properties file   788 does not exist.
 Leave Link 1002 at Sun Sep 28 21:00:06 2025, MaxMem=  1572864000 cpu:            4421.1 elap:             556.5
 (Enter /software/sse/easybuild/prefix/software/Gaussian/16.C.01-avx2-nsc1/g16/l601.exe)
 Copying SCF densities to generalized density rwf, IOpCl= 0 IROHF=0.
 SCF density gives NOpUse=  1 NOpAll=  1.

 **********************************************************************

            Population analysis using the SCF Density.

 **********************************************************************

 Orbital symmetries:
 BldTbl:  Degeneracy threshold= 1.00D-02
       Occupied  (A) (A) (A) (A) (A) (A) (A) (A) (A) (A) (A) (A)
                 (A) (A) (A) (A) (A) (A) (A) (A) (A) (A) (A) (A)
       Virtual   (A) (A) (A) (A) (A) (A) (A) (A) (A) (A) (A) (A)
                 (A) (A) (A) (A) (A) (A) (A) (A) (A) (A) (A) (A)
                 (A) (A) (A) (A) (A) (A) (A) (A) (A) (A) (A) (A)
                 (A) (A) (A) (A) (A) (A) (A) (A) (A) (A) (A) (A)
                 (A) (A) (A) (A) (A) (A) (A) (A) (A) (A) (A) (A)
                 (A) (A) (A) (A) (A) (A) (A) (A) (A) (A) (A) (A)
                 (A) (A) (A) (A) (A) (A) (A) (A) (A) (A) (A) (A)
                 (A) (A) (A) (A) (A) (A) (A) (A) (A) (A) (A) (A)
                 (A) (A) (A) (A) (A) (A) (A) (A) (A) (A) (A) (A)
                 (A) (A) (A) (A) (A) (A) (A) (A) (A) (A) (A) (A)
                 (A) (A) (A) (A) (A) (A) (A) (A) (A) (A) (A) (A)
                 (A) (A) (A) (A) (A) (A) (A) (A) (A) (A) (A) (A)
                 (A) (A) (A) (A) (A) (A) (A) (A) (A) (A) (A) (A)
                 (A) (A) (A) (A) (A) (A) (A) (A) (A) (A) (A) (A)
                 (A) (A) (A) (A) (A) (A) (A) (A) (A) (A) (A) (A)
                 (A) (A) (A) (A) (A) (A) (A) (A) (A) (A) (A) (A)
                 (A) (A) (A) (A) (A) (A) (A) (A) (A) (A) (A) (A)
                 (A) (A) (A) (A) (A) (A) (A) (A) (A) (A) (A) (A)
                 (A) (A) (A) (A) (A) (A) (A) (A) (A) (A) (A) (A)
                 (A) (A) (A) (A) (A) (A) (A) (A) (A) (A) (A) (A)
                 (A) (A) (A) (A) (A) (A) (A) (A) (A) (A) (A) (A)
                 (A) (A) (A) (A) (A) (A) (A) (A) (A) (A) (A) (A)
                 (A) (A) (A) (A) (A) (A) (A) (A) (A) (A) (A) (A)
                 (A) (A) (A) (A) (A) (A) (A) (A) (A) (A) (A) (A)
                 (A) (A) (A) (A) (A) (A) (A) (A) (A) (A) (A) (A)
                 (A) (A) (A) (A) (A) (A) (A) (A) (A) (A) (A) (A)
                 (A) (A) (A) (A) (A) (A) (A) (A) (A) (A) (A) (A)
                 (A) (A) (A) (A) (A) (A) (A) (A) (A) (A) (A) (A)
                 (A) (A) (A) (A) (A) (A) (A) (A) (A) (A) (A) (A)
                 (A) (A) (A) (A) (A) (A) (A) (A) (A) (A) (A) (A)
                 (A) (A) (A) (A) (A) (A) (A) (A) (A) (A) (A) (A)
                 (A) (A) (A) (A) (A) (A) (A) (A) (A) (A) (A) (A)
                 (A) (A) (A) (A) (A) (A) (A) (A) (A) (A) (A) (A)
                 (A) (A) (A) (A) (A) (A) (A) (A) (A) (A) (A) (A)
                 (A) (A) (A) (A) (A)
 The electronic state is 1-A.
 Alpha  occ. eigenvalues --  -20.29223 -20.28663 -11.13256 -11.09210 -11.07208
 Alpha  occ. eigenvalues --  -11.05342  -1.16073  -1.06191  -0.91791  -0.79525
 Alpha  occ. eigenvalues --   -0.66711  -0.52403  -0.49419  -0.45169  -0.42477
 Alpha  occ. eigenvalues --   -0.41313  -0.39411  -0.35919  -0.34419  -0.32696
 Alpha  occ. eigenvalues --   -0.30944  -0.20709  -0.19462  -0.19063
 Alpha virt. eigenvalues --    0.10625   0.12199   0.12469   0.14338   0.14946
 Alpha virt. eigenvalues --    0.15355   0.15762   0.19181   0.19458   0.20755
 Alpha virt. eigenvalues --    0.21904   0.23014   0.23537   0.24057   0.24272
 Alpha virt. eigenvalues --    0.25207   0.26408   0.26623   0.27835   0.27857
 Alpha virt. eigenvalues --    0.31108   0.31564   0.33038   0.33178   0.35250
 Alpha virt. eigenvalues --    0.35314   0.36015   0.36032   0.38419   0.38811
 Alpha virt. eigenvalues --    0.39990   0.40893   0.41838   0.42279   0.43007
 Alpha virt. eigenvalues --    0.43840   0.44906   0.45822   0.46000   0.46618
 Alpha virt. eigenvalues --    0.47317   0.47930   0.48469   0.50192   0.50449
 Alpha virt. eigenvalues --    0.50463   0.50947   0.52126   0.52155   0.52942
 Alpha virt. eigenvalues --    0.53030   0.55680   0.56014   0.56757   0.56792
 Alpha virt. eigenvalues --    0.57868   0.58664   0.59294   0.60089   0.60908
 Alpha virt. eigenvalues --    0.61782   0.62757   0.62843   0.63692   0.63742
 Alpha virt. eigenvalues --    0.64295   0.65892   0.66124   0.69479   0.69637
 Alpha virt. eigenvalues --    0.70206   0.70388   0.70732   0.72283   0.74676
 Alpha virt. eigenvalues --    0.74826   0.76104   0.78177   0.78944   0.81888
 Alpha virt. eigenvalues --    0.82349   0.83461   0.85751   0.87144   0.88783
 Alpha virt. eigenvalues --    0.88925   0.91689   0.92630   0.93218   0.95407
 Alpha virt. eigenvalues --    0.95634   0.96492   0.96558   0.97153   0.98418
 Alpha virt. eigenvalues --    0.99707   0.99812   1.00342   1.02040   1.02745
 Alpha virt. eigenvalues --    1.02827   1.05257   1.05565   1.05631   1.06633
 Alpha virt. eigenvalues --    1.06910   1.07162   1.09267   1.09466   1.10159
 Alpha virt. eigenvalues --    1.11810   1.12456   1.13581   1.14369   1.14511
 Alpha virt. eigenvalues --    1.15685   1.18210   1.19341   1.19541   1.20722
 Alpha virt. eigenvalues --    1.22713   1.23618   1.23692   1.24738   1.26102
 Alpha virt. eigenvalues --    1.26229   1.27346   1.29075   1.29721   1.30221
 Alpha virt. eigenvalues --    1.31359   1.32076   1.33657   1.33855   1.35003
 Alpha virt. eigenvalues --    1.35973   1.36300   1.37233   1.38308   1.38682
 Alpha virt. eigenvalues --    1.39897   1.40501   1.41660   1.43331   1.45741
 Alpha virt. eigenvalues --    1.47786   1.48090   1.48805   1.51264   1.52907
 Alpha virt. eigenvalues --    1.55640   1.57044   1.58733   1.59209   1.60694
 Alpha virt. eigenvalues --    1.61346   1.62723   1.66176   1.67521   1.69579
 Alpha virt. eigenvalues --    1.69842   1.70889   1.72503   1.73715   1.74585
 Alpha virt. eigenvalues --    1.74867   1.76523   1.76674   1.78873   1.79835
 Alpha virt. eigenvalues --    1.80114   1.81365   1.81814   1.83532   1.84052
 Alpha virt. eigenvalues --    1.85972   1.87474   1.88873   1.89081   1.90491
 Alpha virt. eigenvalues --    1.91213   1.92970   1.93178   1.95616   1.97663
 Alpha virt. eigenvalues --    1.97713   1.99422   2.00516   2.02584   2.02802
 Alpha virt. eigenvalues --    2.04775   2.07427   2.07796   2.08933   2.12065
 Alpha virt. eigenvalues --    2.12614   2.12827   2.14269   2.15723   2.17816
 Alpha virt. eigenvalues --    2.19950   2.20047   2.25288   2.25819   2.27678
 Alpha virt. eigenvalues --    2.28080   2.32947   2.34590   2.36362   2.38902
 Alpha virt. eigenvalues --    2.39380   2.40439   2.42325   2.44065   2.44248
 Alpha virt. eigenvalues --    2.47122   2.50192   2.50923   2.53539   2.54690
 Alpha virt. eigenvalues --    2.57735   2.58735   2.59295   2.63742   2.64567
 Alpha virt. eigenvalues --    2.64896   2.67345   2.70197   2.72012   2.73008
 Alpha virt. eigenvalues --    2.77131   2.80640   2.80771   2.84577   2.86687
 Alpha virt. eigenvalues --    2.87573   2.90944   2.92161   2.95027   2.99374
 Alpha virt. eigenvalues --    3.03143   3.07465   3.09242   3.10209   3.16700
 Alpha virt. eigenvalues --    3.18502   3.25098   3.27088   3.30095   3.34155
 Alpha virt. eigenvalues --    3.34295   3.37894   3.44510   3.49071   3.51930
 Alpha virt. eigenvalues --    3.53673   3.55681   3.56656   3.61896   3.62710
 Alpha virt. eigenvalues --    3.65417   3.66515   3.69856   3.70875   3.73067
 Alpha virt. eigenvalues --    3.73946   3.76278   3.76715   3.79247   3.83884
 Alpha virt. eigenvalues --    3.84715   3.86954   3.88318   3.90255   3.91585
 Alpha virt. eigenvalues --    3.92445   3.92974   3.96597   3.98362   3.98467
 Alpha virt. eigenvalues --    4.02865   4.03580   4.04170   4.04673   4.05955
 Alpha virt. eigenvalues --    4.09167   4.10160   4.11328   4.13333   4.13790
 Alpha virt. eigenvalues --    4.16336   4.17697   4.20790   4.21180   4.25427
 Alpha virt. eigenvalues --    4.28900   4.31837   4.32647   4.33553   4.35324
 Alpha virt. eigenvalues --    4.36638   4.39059   4.40150   4.41469   4.43746
 Alpha virt. eigenvalues --    4.43832   4.47136   4.51241   4.51842   4.52812
 Alpha virt. eigenvalues --    4.54642   4.61124   4.65852   4.67523   4.70518
 Alpha virt. eigenvalues --    4.70933   4.72018   4.76059   4.81064   4.82001
 Alpha virt. eigenvalues --    4.82618   4.85642   4.86864   4.89883   4.92149
 Alpha virt. eigenvalues --    4.95483   4.96592   4.99681   5.00151   5.02575
 Alpha virt. eigenvalues --    5.04384   5.06551   5.12274   5.12902   5.17735
 Alpha virt. eigenvalues --    5.20966   5.21828   5.24148   5.25066   5.27060
 Alpha virt. eigenvalues --    5.29714   5.32480   5.33900   5.36338   5.41411
 Alpha virt. eigenvalues --    5.43493   5.43982   5.49211   5.50333   5.52626
 Alpha virt. eigenvalues --    5.53613   5.56886   5.57387   5.63718   5.64110
 Alpha virt. eigenvalues --    5.72717   5.73014   5.74428   5.79175   5.80168
 Alpha virt. eigenvalues --    5.83209   5.84167   5.90811   5.94022   5.99926
 Alpha virt. eigenvalues --    6.05370   6.08414   6.13739   6.22399   6.24126
 Alpha virt. eigenvalues --    6.28489   6.32132   6.32495   6.38657   6.39843
 Alpha virt. eigenvalues --    6.47690   6.61861   6.66245   6.69224   6.86699
 Alpha virt. eigenvalues --    6.89874   6.92746   6.94514   6.95254   6.99536
 Alpha virt. eigenvalues --    7.03765   7.07662   7.14655   7.17852   7.20236
 Alpha virt. eigenvalues --    7.29360   7.31879   7.40919   7.43945   7.54213
 Alpha virt. eigenvalues --    7.60350   7.61243   7.65284   7.77259   7.84131
 Alpha virt. eigenvalues --    7.90459   7.92770   7.95028   8.07822   8.11133
 Alpha virt. eigenvalues --    8.18997   8.27410  14.56544  15.50387  17.28863
 Alpha virt. eigenvalues --   18.11755  18.65079  19.77605
          Condensed to atoms (all electrons):
               1          2          3          4          5          6
     1  C    5.241429   0.120423  -0.071253  -0.118751   0.129302   0.386685
     2  C    0.120423   4.931721   0.347668   0.393166  -0.012730  -0.028413
     3  O   -0.071253   0.347668   8.707792  -0.154273  -0.006489   0.002065
     4  O   -0.118751   0.393166  -0.154273   8.714397  -0.018723   0.023850
     5  C    0.129302  -0.012730  -0.006489  -0.018723   5.411930  -0.005989
     6  H    0.386685  -0.028413   0.002065   0.023850  -0.005989   0.401344
     7  H    0.386276  -0.028099   0.001936   0.024141  -0.006327   0.013499
     8  H    0.012293  -0.014185   0.011556   0.002501   0.397333  -0.000863
     9  H    0.012270  -0.014381   0.011735   0.002485   0.397456   0.004897
    10  C    0.023725  -0.011976  -0.022207  -0.006895   0.013268  -0.008377
    11  H   -0.006558   0.004905  -0.001404  -0.000361   0.020345  -0.009264
    12  H    0.001412  -0.003094   0.000096  -0.000052  -0.036609   0.000837
    13  H   -0.006540   0.004917  -0.001410  -0.000352   0.020301  -0.004750
               7          8          9         10         11         12
     1  C    0.386276   0.012293   0.012270   0.023725  -0.006558   0.001412
     2  C   -0.028099  -0.014185  -0.014381  -0.011976   0.004905  -0.003094
     3  O    0.001936   0.011556   0.011735  -0.022207  -0.001404   0.000096
     4  O    0.024141   0.002501   0.002485  -0.006895  -0.000361  -0.000052
     5  C   -0.006327   0.397333   0.397456   0.013268   0.020345  -0.036609
     6  H    0.013499  -0.000863   0.004897  -0.008377  -0.009264   0.000837
     7  H    0.401583   0.004907  -0.000989  -0.008328  -0.004755   0.000845
     8  H    0.004907   0.337794   0.003846  -0.002131  -0.001527   0.000541
     9  H   -0.000989   0.003846   0.337867  -0.002132  -0.000823   0.000532
    10  C   -0.008328  -0.002131  -0.002132   5.724973   0.389353   0.455087
    11  H   -0.004755  -0.001527  -0.000823   0.389353   0.319977   0.003786
    12  H    0.000845   0.000541   0.000532   0.455087   0.003786   0.319296
    13  H   -0.009272  -0.000808  -0.001569   0.389386   0.024199   0.003752
              13
     1  C   -0.006540
     2  C    0.004917
     3  O   -0.001410
     4  O   -0.000352
     5  C    0.020301
     6  H   -0.004750
     7  H   -0.009272
     8  H   -0.000808
     9  H   -0.001569
    10  C    0.389386
    11  H    0.024199
    12  H    0.003752
    13  H    0.320057
 Mulliken charges:
               1
     1  C   -0.110713
     2  C    0.310077
     3  O   -0.825813
     4  O   -0.861135
     5  C   -0.303068
     6  H    0.224479
     7  H    0.224582
     8  H    0.248742
     9  H    0.248805
    10  C   -0.933744
    11  H    0.262127
    12  H    0.253570
    13  H    0.262091
 Sum of Mulliken charges =  -1.00000
 Mulliken charges with hydrogens summed into heavy atoms:
               1
     1  C    0.338348
     2  C    0.310077
     3  O   -0.825813
     4  O   -0.861135
     5  C    0.194479
    10  C   -0.155956
 APT charges:
               1
     1  C    0.052193
     2  C    1.404160
     3  O   -1.109003
     4  O   -1.163167
     5  C    0.146100
     6  H   -0.066058
     7  H   -0.066008
     8  H   -0.059652
     9  H   -0.059731
    10  C    0.143315
    11  H   -0.065006
    12  H   -0.092125
    13  H   -0.065019
 Sum of APT charges =  -1.00000
 APT charges with hydrogens summed into heavy atoms:
               1
     1  C   -0.079873
     2  C    1.404160
     3  O   -1.109003
     4  O   -1.163167
     5  C    0.026718
    10  C   -0.078835
 DipInt: DoE/N= T F RetVal/Mat= T F Init=T NMatP=  1 IDeriv=0 Min/MaxMlt=  0  4
 Entering OneElI...
 OneElI was handed  1572214938 working-precision words.
 Multipole integrals L=0 to 4 MinM= 0 MaxM= 0.
 Requested accuracy = 0.1000D-12
 ShPair: Thresh= 1.00D-13 NBox=     0 BxSize= 0.00D+00 RnKept= 1.09D+01
         NSMCal=                10878 NSMKep=               10675
 PrmmSu-InSpLW:  IPartL=    0 NPrtUS=    1 NPrtUL=    1 DoSpLW=F IThBeg=    0 IThEnd=    0 NThAct=    1.
 PrSmSu:  IncTry=   512 NBBP=          10675 NTPThr=   100 NPartT=    1 Incr=         106 LDynOK=F GPUOK=F.
 PrsmSu:  NPrtUS=   1 ThrOK=F IAlg=2 LenDen=           0 ISkipM=0 DoSpLW=F IThBeg=    0 IThEnd=    0.
 Prism:   IPart=     0 DynPar=F LinDyn=F Incr=         106.
 PRISM was handed  1571480731 working-precision words and 10675 shell-pairs
 IPart=  0 NShTot=       10675 NBatch=         106 AvBLen=       100.7
 PrsmSu-ThDecC:  IPartSL=    0    0 NPrtUSL=    1    1 IThBeg=    0 IThEnd=    0 CPU=   -1 GPU=   -1 NThAct=    1.
 PrSmSu:  NxtVal=            107.
 Electronic moments (au):
        -48.00000000          3.25946323         -0.39218278          0.00089935
       -563.76575749       -141.60417796        -45.45851035         -0.27846391
         -0.00496571         -0.00289173       -581.88978155        -62.72487308
         -0.05078432        149.99865882        160.89496685          0.40387327
        -47.04639308         10.07524908          0.00451212          0.18014981
     -12577.37572356       -985.62080473       -213.36180182       -271.07975351
         -0.23260003        159.03262496         -0.26040330         -0.02957796
          0.24952416      -1451.38560994       -560.01282143       -177.54789654
         -0.47963090          0.01930018         24.44708724
 Electronic spatial extent (au):  <R**2>=            750.8284
 DipInt: DoE/N= F T RetVal/Mat= T F Init=T NMatP=  1 IDeriv=0 Min/MaxMlt=  0  4
 Nuclear    moments (au):
         47.00000000         -0.00000000          0.00000000          0.00000000
        515.95472190        104.95800524         16.74420318         -0.00000000
          0.00000000         -0.00000000        615.78750515         58.67431070
          0.05389234       -131.89555211       -147.84882287         -0.37751699
         44.31711554        -10.17864981         -0.00972863         -0.16535603
      10095.16866292        439.65855221         46.73003795        236.30237687
          0.13992977       -142.31167737          0.29119882          0.04040608
         -0.26403222        947.69256510        182.61260661         67.66345906
          0.42648587         -0.03263298        -26.47219022
 Total      moments (au):
         -1.00000000          3.25946323         -0.39218278          0.00089935
        -47.81103558        -36.64617272        -28.71430717         -0.27846391
         -0.00496571         -0.00289173         33.89772360         -4.05056238
          0.00310802         18.10310671         13.04614398          0.02635628
         -2.72927755         -0.10340073         -0.00521651          0.01479378
      -2482.20706065       -545.96225253       -166.63176386        -34.77737664
         -0.09267026         16.72094759          0.03079552          0.01082812
         -0.01450806       -503.69304484       -377.40021482       -109.88443749
         -0.05314502         -0.01333280         -2.02510298
 Charge=             -1.0000 electrons
 Dipole moment (field-independent basis, Debye):
    X=              8.2847    Y=             -0.9968    Z=              0.0023  Tot=              8.3445
 Quadrupole moment (field-independent basis, Debye-Ang):
   XX=            -64.3075   YY=            -49.2904   ZZ=            -38.6217
   XY=             -0.3745   XZ=             -0.0067   YZ=             -0.0039
 Traceless Quadrupole moment (field-independent basis, Debye-Ang):
   XX=            -13.5676   YY=              1.4495   ZZ=             12.1181
   XY=             -0.3745   XZ=             -0.0067   YZ=             -0.0039
 Octapole moment (field-independent basis, Debye-Ang**2):
  XXX=             24.1271  YYY=             -2.8830  ZZZ=              0.0022  XYY=             12.8851
  XXY=              9.2857  XXZ=              0.0188  XZZ=             -1.9426  YZZ=             -0.0736
  YYZ=             -0.0037  XYZ=              0.0105
 Hexadecapole moment (field-independent basis, Debye-Ang**3):
 XXXX=           -934.9182 YYYY=           -205.6356 ZZZZ=            -62.7615 XXXY=            -13.0988
 XXXZ=             -0.0349 YYYX=              6.2979 YYYZ=              0.0116 ZZZX=              0.0041
 ZZZY=             -0.0055 XXYY=           -189.7150 XXZZ=           -142.1470 YYZZ=            -41.3877
 XXYZ=             -0.0200 YYXZ=             -0.0050 ZZXY=             -0.7628
 N-N= 2.282558220548D+02 E-N=-1.184028604304D+03  KE= 3.050015304415D+02
 SetAtRh:  ITypeU=  23 NETotI=      -1 ICharg=  0 NETot=      47.
 StAtR1:  I=    1 I1=    1 IA=  6 C=   6.0 OKShel=TTT
                                                  SSP
                                                  222
 StAtR1:  I=    2 I1=    2 IA=  6 C=   6.0 OKShel=TTT
                                                  SSP
                                                  222
 StAtR1:  I=    3 I1=    3 IA=  8 C=   8.0 OKShel=TTT
                                                  SSP
                                                  224
 StAtR1:  I=    4 I1=    4 IA=  8 C=   8.0 OKShel=TTT
                                                  SSP
                                                  224
 StAtR1:  I=    5 I1=    5 IA=  6 C=   6.0 OKShel=TTT
                                                  SSP
                                                  222
 StAtR1:  I=    6 I1=    6 IA=  1 C=   1.0 OKShel=T
                                                  S
                                                  1
 StAtR1:  I=    7 I1=    7 IA=  1 C=   1.0 OKShel=T
                                                  S
                                                  1
 StAtR1:  I=    8 I1=    8 IA=  1 C=   1.0 OKShel=T
                                                  S
                                                  1
 StAtR1:  I=    9 I1=    9 IA=  1 C=   1.0 OKShel=T
                                                  S
                                                  1
 StAtR1:  I=   10 I1=   10 IA=  6 C=   6.0 OKShel=TTT
                                                  SSP
                                                  222
 StAtR1:  I=   11 I1=   11 IA=  1 C=   1.0 OKShel=T
                                                  S
                                                  1
 StAtR1:  I=   12 I1=   12 IA=  1 C=   1.0 OKShel=T
                                                  S
                                                  1
 StAtR1:  I=   13 I1=   13 IA=  1 C=   1.0 OKShel=T
                                                  S
                                                  1
          I=    1 IA=  6 I1=    1 NAtG=23 NE=   6.000 C=   6.000 Err= 1.75D-11
          I=    2 IA=  6 I1=    2 NAtG=23 NE=   6.000 C=   6.000 Err= 1.75D-11
          I=    3 IA=  8 I1=    3 NAtG=23 NE=   8.000 C=   8.000 Err=-3.68D-11
          I=    4 IA=  8 I1=    4 NAtG=23 NE=   8.000 C=   8.000 Err=-3.68D-11
          I=    5 IA=  6 I1=    5 NAtG=23 NE=   6.000 C=   6.000 Err= 1.75D-11
          I=    6 IA=  1 I1=    6 NAtG=20 NE=   1.000 C=   1.000 Err= 2.80D-12
          I=    7 IA=  1 I1=    7 NAtG=20 NE=   1.000 C=   1.000 Err= 2.80D-12
          I=    8 IA=  1 I1=    8 NAtG=20 NE=   1.000 C=   1.000 Err= 2.80D-12
          I=    9 IA=  1 I1=    9 NAtG=20 NE=   1.000 C=   1.000 Err= 2.80D-12
          I=   10 IA=  6 I1=   10 NAtG=23 NE=   6.000 C=   6.000 Err= 1.75D-11
          I=   11 IA=  1 I1=   11 NAtG=20 NE=   1.000 C=   1.000 Err= 2.80D-12
          I=   12 IA=  1 I1=   12 NAtG=20 NE=   1.000 C=   1.000 Err= 2.80D-12
          I=   13 IA=  1 I1=   13 NAtG=20 NE=   1.000 C=   1.000 Err= 2.80D-12
 Pruned (  99, 590) grid will be used in numerical quadrature.
 IPart=  0 IRanGd=          0 ScrnBf=T ScrnGd=T RCrit=4.00D+00 DoMicB=T.
 CutRad = 1000.00    CtRdIn =    0.00    XCrit =  15.00   ICut = 0
 Pruned (  99, 590) grid will be used in numerical quadrature.
 Pruned (  99, 590) grid will be used in numerical quadrature.
 IPart=  6 IRanGd=          0 ScrnBf=T ScrnGd=T RCrit=4.00D+00 DoMicB=T.
 CutRad = 1000.00    CtRdIn =    0.00    XCrit =  15.00   ICut = 0
 IPart=  1 IRanGd=          0 ScrnBf=T ScrnGd=T RCrit=4.00D+00 DoMicB=T.
 Pruned (  99, 590) grid will be used in numerical quadrature.
 Pruned (  99, 590) grid will be used in numerical quadrature.
 IPart=  5 IRanGd=          0 ScrnBf=T ScrnGd=T RCrit=4.00D+00 DoMicB=T.
 CutRad = 1000.00    CtRdIn =    0.00    XCrit =  15.00   ICut = 0
 Pruned (  99, 590) grid will be used in numerical quadrature.
 IPart=  2 IRanGd=          0 ScrnBf=T ScrnGd=T RCrit=4.00D+00 DoMicB=T.
 CutRad = 1000.00    CtRdIn =    0.00    XCrit =  15.00   ICut = 0
 Pruned (  99, 590) grid will be used in numerical quadrature.
 IPart=  7 IRanGd=          0 ScrnBf=T ScrnGd=T RCrit=4.00D+00 DoMicB=T.
 Pruned (  99, 590) grid will be used in numerical quadrature.
 IPart=  3 IRanGd=          0 ScrnBf=T ScrnGd=T RCrit=4.00D+00 DoMicB=T.
 CutRad = 1000.00    CtRdIn =    0.00    XCrit =  15.00   ICut = 0
 CutRad = 1000.00    CtRdIn =    0.00    XCrit =  15.00   ICut = 0
 IPart=  4 IRanGd=          0 ScrnBf=T ScrnGd=T RCrit=4.00D+00 DoMicB=T.
 CutRad = 1000.00    CtRdIn =    0.00    XCrit =  15.00   ICut = 0
 CutRad = 1000.00    CtRdIn =    0.00    XCrit =  15.00   ICut = 0
 Pruned (  99, 590) grid will be used in numerical quadrature.
 IPart=  0 Atom number   1 atomic number  6 has       23114 grid points.
 IPart=  0 Atom   1 batch    1 overlaps   13 atoms,   142 shells and    13 DB shells.   NGrid=      2408
 Symmetry reduced    86 angular points to    86 for atom    1.
 Pruned (  99, 590) grid will be used in numerical quadrature.
 Pruned (  99, 590) grid will be used in numerical quadrature.
 IPart=  5 Atom number   1 atomic number  6 has       23114 grid points.
 IPart=  2 Atom number   1 atomic number  6 has       23114 grid points.
 IPart=  5 Atom   1 batch    2 overlaps   13 atoms,   142 shells and    13 DB shells.   NGrid=      2522
 IPart=  2 Atom   1 batch    4 overlaps   13 atoms,   144 shells and    13 DB shells.   NGrid=      1180
 Pruned (  99, 590) grid will be used in numerical quadrature.
 Symmetry reduced   590 angular points to   590 for atom    1.
 IPart=  6 Atom number   1 atomic number  6 has       23114 grid points.
 Symmetry reduced   194 angular points to   194 for atom    1.
 Pruned (  99, 590) grid will be used in numerical quadrature.
 Pruned (  99, 590) grid will be used in numerical quadrature.
 Pruned (  99, 590) grid will be used in numerical quadrature.
 IPart=  1 Atom number   1 atomic number  6 has       23114 grid points.
 IPart=  4 Atom number   1 atomic number  6 has       23114 grid points.
 IPart=  1 Atom   1 batch    8 overlaps   13 atoms,   147 shells and    13 DB shells.   NGrid=      1180
 IPart=  4 Atom   1 batch    7 overlaps   13 atoms,   147 shells and    13 DB shells.   NGrid=      1180
 Pruned (  99, 590) grid will be used in numerical quadrature.
 Symmetry reduced   590 angular points to   590 for atom    1.
 Symmetry reduced   590 angular points to   590 for atom    1.
 IPart=  6 Atom   1 batch    3 overlaps   13 atoms,   144 shells and    13 DB shells.   NGrid=      2114
 IPart=  3 Atom number   1 atomic number  6 has       23114 grid points.
 Symmetry reduced   302 angular points to   302 for atom    1.
 IPart=  3 Atom   1 batch    6 overlaps   13 atoms,   145 shells and    13 DB shells.   NGrid=      1180
 IPart=  7 Atom number   1 atomic number  6 has       23114 grid points.
 Symmetry reduced   590 angular points to   590 for atom    1.
 IPart=  7 Atom   1 batch    5 overlaps   13 atoms,   145 shells and    13 DB shells.   NGrid=      1180
 Symmetry reduced   590 angular points to   590 for atom    1.
 IPart=  7 Atom   1 batch    9 overlaps   13 atoms,   147 shells and    13 DB shells.   NGrid=      1180
 IPart=  1 Atom   1 batch   10 overlaps   13 atoms,   147 shells and    13 DB shells.   NGrid=      1180
 IPart=  3 Atom   1 batch   11 overlaps   13 atoms,   146 shells and    13 DB shells.   NGrid=      1180
 IPart=  2 Atom   1 batch   12 overlaps   13 atoms,   146 shells and    13 DB shells.   NGrid=       590
 IPart=  4 Atom   1 batch   13 overlaps   13 atoms,   146 shells and    13 DB shells.   NGrid=       604
 Symmetry reduced   302 angular points to   302 for atom    1.
 IPart=  4 Atom   1 batch   14 overlaps   13 atoms,   146 shells and    13 DB shells.   NGrid=       604
 IPart=  2 Atom   1 batch   15 overlaps   13 atoms,   141 shells and    13 DB shells.   NGrid=       604
 Symmetry reduced   302 angular points to   302 for atom    1.
 IPart=  0 Atom   1 batch   16 overlaps   13 atoms,   134 shells and    13 DB shells.   NGrid=       604
 Symmetry reduced   302 angular points to   302 for atom    1.
 IPart=  6 Atom   1 batch   17 overlaps   13 atoms,   115 shells and    13 DB shells.   NGrid=       604
 IPart=  2 Atom   1 batch   18 overlaps   13 atoms,    90 shells and    13 DB shells.   NGrid=       604
 IPart=  6 Atom   1 batch   19 overlaps   13 atoms,    64 shells and    13 DB shells.   NGrid=       604
 IPart=  0 Atom   1 batch   20 overlaps   13 atoms,    41 shells and     8 DB shells.   NGrid=       604
 IPart=  6 Atom   1 batch   21 overlaps   13 atoms,    20 shells and     0 DB shells.   NGrid=       604
 IPart=  4 Atom   1 batch   22 overlaps   13 atoms,     8 shells and     0 DB shells.   NGrid=       604
 Pruned (  99, 590) grid will be used in numerical quadrature.
 IPart=  0 Atom number   2 atomic number  6 has       23416 grid points.
 IPart=  0 Atom   2 batch    1 overlaps   13 atoms,   133 shells and    13 DB shells.   NGrid=      2408
 Symmetry reduced    86 angular points to    86 for atom    2.
 Pruned (  99, 590) grid will be used in numerical quadrature.
 Pruned (  99, 590) grid will be used in numerical quadrature.
 IPart=  6 Atom number   2 atomic number  6 has       23416 grid points.
 IPart=  4 Atom number   2 atomic number  6 has       23416 grid points.
 IPart=  6 Atom   2 batch    2 overlaps   13 atoms,   133 shells and    13 DB shells.   NGrid=      2522
 IPart=  4 Atom   2 batch    3 overlaps   13 atoms,   135 shells and    13 DB shells.   NGrid=      2114
 Symmetry reduced   194 angular points to   194 for atom    2.
 Symmetry reduced   302 angular points to   302 for atom    2.
 Pruned (  99, 590) grid will be used in numerical quadrature.
 IPart=  2 Atom number   2 atomic number  6 has       23416 grid points.
 IPart=  2 Atom   2 batch    4 overlaps   13 atoms,   135 shells and    13 DB shells.   NGrid=      1180
 Symmetry reduced   590 angular points to   590 for atom    2.
 Pruned (  99, 590) grid will be used in numerical quadrature.
 IPart=  5 Atom number   2 atomic number  6 has       23416 grid points.
 IPart=  5 Atom   2 batch    5 overlaps   13 atoms,   136 shells and    13 DB shells.   NGrid=      1180
 Symmetry reduced   590 angular points to   590 for atom    2.
 Pruned (  99, 590) grid will be used in numerical quadrature.
 IPart=  3 Atom number   2 atomic number  6 has       23416 grid points.
 IPart=  3 Atom   2 batch    6 overlaps   13 atoms,   139 shells and    13 DB shells.   NGrid=      1180
 Symmetry reduced   590 angular points to   590 for atom    2.
 Pruned (  99, 590) grid will be used in numerical quadrature.
 IPart=  1 Atom number   2 atomic number  6 has       23416 grid points.
 IPart=  1 Atom   2 batch    7 overlaps   13 atoms,   139 shells and    13 DB shells.   NGrid=      1180
 Symmetry reduced   590 angular points to   590 for atom    2.
 Pruned (  99, 590) grid will be used in numerical quadrature.
 IPart=  7 Atom number   2 atomic number  6 has       23416 grid points.
 IPart=  7 Atom   2 batch    8 overlaps   13 atoms,   141 shells and    13 DB shells.   NGrid=      1180
 Symmetry reduced   590 angular points to   590 for atom    2.
 IPart=  2 Atom   2 batch    9 overlaps   13 atoms,   144 shells and    13 DB shells.   NGrid=      1180
 IPart=  5 Atom   2 batch   10 overlaps   13 atoms,   145 shells and    13 DB shells.   NGrid=      1180
 IPart=  3 Atom   2 batch   11 overlaps   13 atoms,   146 shells and    13 DB shells.   NGrid=      1180
 IPart=  1 Atom   2 batch   12 overlaps   13 atoms,   146 shells and    13 DB shells.   NGrid=       590
 IPart=  7 Atom   2 batch   13 overlaps   13 atoms,   146 shells and    13 DB shells.   NGrid=       604
 Symmetry reduced   302 angular points to   302 for atom    2.
 IPart=  1 Atom   2 batch   14 overlaps   13 atoms,   144 shells and    13 DB shells.   NGrid=       604
 Symmetry reduced   302 angular points to   302 for atom    2.
 IPart=  7 Atom   2 batch   15 overlaps   13 atoms,   140 shells and    13 DB shells.   NGrid=       604
 IPart=  4 Atom   2 batch   16 overlaps   13 atoms,   132 shells and    13 DB shells.   NGrid=       604
 IPart=  0 Atom   2 batch   17 overlaps   13 atoms,   121 shells and    13 DB shells.   NGrid=       604
 Symmetry reduced   302 angular points to   302 for atom    2.
 IPart=  0 Atom   2 batch   18 overlaps   13 atoms,    99 shells and    13 DB shells.   NGrid=       604
 IPart=  7 Atom   2 batch   19 overlaps   13 atoms,    73 shells and    13 DB shells.   NGrid=       604
 IPart=  4 Atom   2 batch   20 overlaps   13 atoms,    46 shells and    10 DB shells.   NGrid=       604
 IPart=  6 Atom   2 batch   21 overlaps   13 atoms,    24 shells and     2 DB shells.   NGrid=       604
 Symmetry reduced   302 angular points to   302 for atom    2.
 IPart=  5 Atom   2 batch   22 overlaps   13 atoms,    10 shells and     0 DB shells.   NGrid=       604
 Symmetry reduced   302 angular points to   302 for atom    2.
 IPart=  1 Atom   2 batch   23 overlaps   13 atoms,     0 shells and     0 DB shells.   NGrid=       302
 Pruned (  99, 590) grid will be used in numerical quadrature.
 IPart=  1 Atom number   3 atomic number  8 has       23718 grid points.
 IPart=  1 Atom   3 batch    1 overlaps   13 atoms,   128 shells and    13 DB shells.   NGrid=      2408
 Symmetry reduced    86 angular points to    86 for atom    3.
 Pruned (  99, 590) grid will be used in numerical quadrature.
 IPart=  4 Atom number   3 atomic number  8 has       23718 grid points.
 IPart=  4 Atom   3 batch    2 overlaps   13 atoms,   131 shells and    13 DB shells.   NGrid=      2522
 Symmetry reduced   194 angular points to   194 for atom    3.
 Pruned (  99, 590) grid will be used in numerical quadrature.
 IPart=  5 Atom number   3 atomic number  8 has       23718 grid points.
 IPart=  5 Atom   3 batch    3 overlaps   13 atoms,   131 shells and    13 DB shells.   NGrid=      2114
 Symmetry reduced   302 angular points to   302 for atom    3.
 Pruned (  99, 590) grid will be used in numerical quadrature.
 IPart=  6 Atom number   3 atomic number  8 has       23718 grid points.
 IPart=  6 Atom   3 batch    4 overlaps   13 atoms,   131 shells and    13 DB shells.   NGrid=      1180
 Symmetry reduced   590 angular points to   590 for atom    3.
 Pruned (  99, 590) grid will be used in numerical quadrature.
 IPart=  7 Atom number   3 atomic number  8 has       23718 grid points.
 IPart=  7 Atom   3 batch    5 overlaps   13 atoms,   132 shells and    13 DB shells.   NGrid=      1180
 Symmetry reduced   590 angular points to   590 for atom    3.
 Pruned (  99, 590) grid will be used in numerical quadrature.
 IPart=  0 Atom number   3 atomic number  8 has       23718 grid points.
 IPart=  0 Atom   3 batch    6 overlaps   13 atoms,   132 shells and    13 DB shells.   NGrid=      1180
 Symmetry reduced   590 angular points to   590 for atom    3.
 Pruned (  99, 590) grid will be used in numerical quadrature.
 IPart=  2 Atom number   3 atomic number  8 has       23718 grid points.
 IPart=  2 Atom   3 batch    7 overlaps   13 atoms,   132 shells and    13 DB shells.   NGrid=      1180
 Symmetry reduced   590 angular points to   590 for atom    3.
 Pruned (  99, 590) grid will be used in numerical quadrature.
 IPart=  3 Atom number   3 atomic number  8 has       23718 grid points.
 IPart=  3 Atom   3 batch    8 overlaps   13 atoms,   135 shells and    13 DB shells.   NGrid=      1180
 Symmetry reduced   590 angular points to   590 for atom    3.
 IPart=  6 Atom   3 batch    9 overlaps   13 atoms,   136 shells and    13 DB shells.   NGrid=      1180
 IPart=  7 Atom   3 batch   10 overlaps   13 atoms,   137 shells and    13 DB shells.   NGrid=      1180
 IPart=  0 Atom   3 batch   11 overlaps   13 atoms,   140 shells and    13 DB shells.   NGrid=      1180
 IPart=  2 Atom   3 batch   12 overlaps   13 atoms,   139 shells and    13 DB shells.   NGrid=       590
 IPart=  3 Atom   3 batch   13 overlaps   13 atoms,   145 shells and    13 DB shells.   NGrid=       604
 Symmetry reduced   302 angular points to   302 for atom    3.
 IPart=  1 Atom   3 batch   14 overlaps   13 atoms,   145 shells and    13 DB shells.   NGrid=       604
 Symmetry reduced   302 angular points to   302 for atom    3.
 IPart=  2 Atom   3 batch   15 overlaps   13 atoms,   143 shells and    13 DB shells.   NGrid=       604
 Symmetry reduced   302 angular points to   302 for atom    3.
 IPart=  5 Atom   3 batch   16 overlaps   13 atoms,   142 shells and    13 DB shells.   NGrid=       604
 IPart=  3 Atom   3 batch   17 overlaps   13 atoms,   140 shells and    13 DB shells.   NGrid=       604
 IPart=  4 Atom   3 batch   18 overlaps   13 atoms,   131 shells and    13 DB shells.   NGrid=       604
 Symmetry reduced   302 angular points to   302 for atom    3.
 IPart=  3 Atom   3 batch   19 overlaps   13 atoms,   118 shells and    13 DB shells.   NGrid=       604
 IPart=  4 Atom   3 batch   20 overlaps   13 atoms,    94 shells and    12 DB shells.   NGrid=       604
 IPart=  6 Atom   3 batch   21 overlaps   13 atoms,    58 shells and    11 DB shells.   NGrid=       604
 Symmetry reduced   302 angular points to   302 for atom    3.
 IPart=  5 Atom   3 batch   22 overlaps   13 atoms,    29 shells and     4 DB shells.   NGrid=       604
 IPart=  4 Atom   3 batch   23 overlaps   13 atoms,    11 shells and     0 DB shells.   NGrid=       604
 Pruned (  99, 590) grid will be used in numerical quadrature.
 IPart=  6 Atom number   4 atomic number  8 has       24020 grid points.
 IPart=  6 Atom   4 batch    1 overlaps   13 atoms,   119 shells and    13 DB shells.   NGrid=      2408
 Symmetry reduced    86 angular points to    86 for atom    4.
 Pruned (  99, 590) grid will be used in numerical quadrature.
 Pruned (  99, 590) grid will be used in numerical quadrature.
 IPart=  1 Atom number   4 atomic number  8 has       24020 grid points.
 IPart=  5 Atom number   4 atomic number  8 has       24020 grid points.
 Pruned (  99, 590) grid will be used in numerical quadrature.
 IPart=  5 Atom   4 batch    3 overlaps   13 atoms,   122 shells and    13 DB shells.   NGrid=      2114
 IPart=  2 Atom number   4 atomic number  8 has       24020 grid points.
 Symmetry reduced   302 angular points to   302 for atom    4.
 IPart=  2 Atom   4 batch    4 overlaps   13 atoms,   123 shells and    13 DB shells.   NGrid=      1180
 IPart=  1 Atom   4 batch    2 overlaps   13 atoms,   121 shells and    13 DB shells.   NGrid=      2522
 Symmetry reduced   590 angular points to   590 for atom    4.
 Symmetry reduced   194 angular points to   194 for atom    4.
 Pruned (  99, 590) grid will be used in numerical quadrature.
 IPart=  4 Atom number   4 atomic number  8 has       24020 grid points.
 IPart=  4 Atom   4 batch    5 overlaps   13 atoms,   124 shells and    13 DB shells.   NGrid=      1180
 Symmetry reduced   590 angular points to   590 for atom    4.
 Pruned (  99, 590) grid will be used in numerical quadrature.
 IPart=  3 Atom number   4 atomic number  8 has       24020 grid points.
 IPart=  3 Atom   4 batch    6 overlaps   13 atoms,   127 shells and    13 DB shells.   NGrid=      1180
 Symmetry reduced   590 angular points to   590 for atom    4.
 Pruned (  99, 590) grid will be used in numerical quadrature.
 IPart=  7 Atom number   4 atomic number  8 has       24020 grid points.
 IPart=  7 Atom   4 batch    7 overlaps   13 atoms,   127 shells and    13 DB shells.   NGrid=      1180
 Symmetry reduced   590 angular points to   590 for atom    4.
 Pruned (  99, 590) grid will be used in numerical quadrature.
 IPart=  0 Atom number   4 atomic number  8 has       24020 grid points.
 IPart=  0 Atom   4 batch    8 overlaps   13 atoms,   129 shells and    13 DB shells.   NGrid=      1180
 Symmetry reduced   590 angular points to   590 for atom    4.
 IPart=  2 Atom   4 batch    9 overlaps   13 atoms,   131 shells and    13 DB shells.   NGrid=      1180
 IPart=  4 Atom   4 batch   10 overlaps   13 atoms,   133 shells and    13 DB shells.   NGrid=      1180
 IPart=  3 Atom   4 batch   11 overlaps   13 atoms,   134 shells and    13 DB shells.   NGrid=      1180
 IPart=  7 Atom   4 batch   12 overlaps   13 atoms,   136 shells and    13 DB shells.   NGrid=       590
 IPart=  0 Atom   4 batch   13 overlaps   13 atoms,   138 shells and    13 DB shells.   NGrid=       604
 Symmetry reduced   302 angular points to   302 for atom    4.
 IPart=  6 Atom   4 batch   14 overlaps   13 atoms,   142 shells and    13 DB shells.   NGrid=       604
 Symmetry reduced   302 angular points to   302 for atom    4.
 IPart=  7 Atom   4 batch   15 overlaps   13 atoms,   141 shells and    13 DB shells.   NGrid=       604
 Symmetry reduced   302 angular points to   302 for atom    4.
 IPart=  5 Atom   4 batch   16 overlaps   13 atoms,   142 shells and    13 DB shells.   NGrid=       604
 IPart=  0 Atom   4 batch   17 overlaps   13 atoms,   140 shells and    13 DB shells.   NGrid=       604
 IPart=  1 Atom   4 batch   18 overlaps   13 atoms,   132 shells and    13 DB shells.   NGrid=       604
 Symmetry reduced   302 angular points to   302 for atom    4.
 IPart=  0 Atom   4 batch   19 overlaps   13 atoms,   119 shells and    13 DB shells.   NGrid=       604
 IPart=  2 Atom   4 batch   20 overlaps   13 atoms,    96 shells and    12 DB shells.   NGrid=       604
 Symmetry reduced   302 angular points to   302 for atom    4.
 IPart=  5 Atom   4 batch   21 overlaps   13 atoms,    61 shells and    11 DB shells.   NGrid=       604
 IPart=  1 Atom   4 batch   22 overlaps   13 atoms,    32 shells and     7 DB shells.   NGrid=       604
 IPart=  3 Atom   4 batch   23 overlaps   13 atoms,    12 shells and     0 DB shells.   NGrid=       604
 Symmetry reduced   302 angular points to   302 for atom    4.
 IPart=  4 Atom   4 batch   24 overlaps   13 atoms,     0 shells and     0 DB shells.   NGrid=       302
 Pruned (  99, 590) grid will be used in numerical quadrature.
 IPart=  4 Atom number   5 atomic number  6 has       23114 grid points.
 IPart=  4 Atom   5 batch    1 overlaps   13 atoms,   137 shells and    13 DB shells.   NGrid=      2408
 Symmetry reduced    86 angular points to    86 for atom    5.
 Pruned (  99, 590) grid will be used in numerical quadrature.
 IPart=  1 Atom number   5 atomic number  6 has       23114 grid points.
 IPart=  1 Atom   5 batch    2 overlaps   13 atoms,   138 shells and    13 DB shells.   NGrid=      2522
 Symmetry reduced   194 angular points to   194 for atom    5.
 Pruned (  99, 590) grid will be used in numerical quadrature.
 IPart=  5 Atom number   5 atomic number  6 has       23114 grid points.
 IPart=  5 Atom   5 batch    3 overlaps   13 atoms,   140 shells and    13 DB shells.   NGrid=      2114
 Symmetry reduced   302 angular points to   302 for atom    5.
 Pruned (  99, 590) grid will be used in numerical quadrature.
 IPart=  3 Atom number   5 atomic number  6 has       23114 grid points.
 Pruned (  99, 590) grid will be used in numerical quadrature.
 IPart=  3 Atom   5 batch    4 overlaps   13 atoms,   140 shells and    13 DB shells.   NGrid=      1180
 IPart=  7 Atom number   5 atomic number  6 has       23114 grid points.
 Symmetry reduced   590 angular points to   590 for atom    5.
 IPart=  7 Atom   5 batch    5 overlaps   13 atoms,   142 shells and    13 DB shells.   NGrid=      1180
 Symmetry reduced   590 angular points to   590 for atom    5.
 Pruned (  99, 590) grid will be used in numerical quadrature.
 IPart=  6 Atom number   5 atomic number  6 has       23114 grid points.
 IPart=  6 Atom   5 batch    6 overlaps   13 atoms,   142 shells and    13 DB shells.   NGrid=      1180
 Symmetry reduced   590 angular points to   590 for atom    5.
 Pruned (  99, 590) grid will be used in numerical quadrature.
 IPart=  2 Atom number   5 atomic number  6 has       23114 grid points.
 IPart=  2 Atom   5 batch    7 overlaps   13 atoms,   142 shells and    13 DB shells.   NGrid=      1180
 Symmetry reduced   590 angular points to   590 for atom    5.
 Pruned (  99, 590) grid will be used in numerical quadrature.
 IPart=  0 Atom number   5 atomic number  6 has       23114 grid points.
 IPart=  0 Atom   5 batch    8 overlaps   13 atoms,   143 shells and    13 DB shells.   NGrid=      1180
 Symmetry reduced   590 angular points to   590 for atom    5.
 IPart=  7 Atom   5 batch    9 overlaps   13 atoms,   146 shells and    13 DB shells.   NGrid=      1180
 IPart=  3 Atom   5 batch   10 overlaps   13 atoms,   146 shells and    13 DB shells.   NGrid=      1180
 IPart=  6 Atom   5 batch   11 overlaps   13 atoms,   145 shells and    13 DB shells.   NGrid=      1180
 IPart=  0 Atom   5 batch   12 overlaps   13 atoms,   145 shells and    13 DB shells.   NGrid=       590
 IPart=  2 Atom   5 batch   13 overlaps   13 atoms,   146 shells and    13 DB shells.   NGrid=       604
 Symmetry reduced   302 angular points to   302 for atom    5.
 IPart=  0 Atom   5 batch   14 overlaps   13 atoms,   146 shells and    13 DB shells.   NGrid=       604
 Symmetry reduced   302 angular points to   302 for atom    5.
 IPart=  2 Atom   5 batch   15 overlaps   13 atoms,   141 shells and    13 DB shells.   NGrid=       604
[...]
   zy         0.158156D+00      0.234363D-01      0.260764D-01
   zz         0.494881D+02      0.733339D+01      0.815949D+01

 First dipole hyperpolarizability, Beta (input orientation).
 ||, _|_  parallel and perpendicular components, (z) with respect to z axis,
 vector components x,y,z.  Values do not include the 1/n! factor of 1/2.
 (esu units = statvolt**-1 cm**4 , SI units = C**3 m**3 J**-2)
 Beta(0;0,0):
               (au)            (10**-30 esu)      (10**-50 SI)
   || (z)     0.440559D+00      0.380609D-02      0.141259D-02
   _|_(z)     0.146853D+00      0.126870D-02      0.470864D-03
   x         -0.427275D+03     -0.369132D+01     -0.137000D+01
   y         -0.649271D+01     -0.560919D-01     -0.208180D-01
   z          0.220279D+01      0.190304D-01      0.706296D-02
   ||         0.854660D+02      0.738359D+00      0.274035D+00
   xxx       -0.481637D+02     -0.416097D+00     -0.154430D+00
   xxy       -0.108747D+01     -0.939489D-02     -0.348682D-02
   yxy       -0.787276D+02     -0.680145D+00     -0.252429D+00
   yyy       -0.166330D+02     -0.143696D+00     -0.533314D-01
   xxz        0.779469D-01      0.673400D-03      0.249926D-03
   yxz       -0.706185D+00     -0.610089D-02     -0.226428D-02
   yyz       -0.182887D+00     -0.158000D-02     -0.586402D-03
   zxz       -0.155336D+02     -0.134199D+00     -0.498065D-01
   zyz        0.155562D+02      0.134394D+00      0.498789D-01
   zzz        0.839205D+00      0.725008D-02      0.269080D-02

 ----------------------------------------------------------------------

 Dipole orientation:
     6         -0.26527921          0.81459671          1.93336322
     6         -0.03502900          0.07525056         -0.89292365
     8          0.64286872         -2.10086462         -1.35964640
     8         -0.56766213          1.78495462         -2.38196703
     6          0.37694483         -1.24770947          3.83367408
     1          0.93974781          2.45351840          2.23012845
     1         -2.18775597          1.47959756          2.23013111
     1          2.29005569         -1.90103530          3.50062999
     1         -0.82700629         -2.87170273          3.50065279
     6          0.10781237         -0.38341119          6.57613981
     1          1.34567073          1.20461984          6.98227830
     1          0.57644975         -1.88833075          7.89454100
     1         -1.81279169          0.22107564          6.98229228

 Electric dipole moment (dipole orientation):
 (Debye = 10**-18 statcoulomb cm , SI units = C m)
                  (au)            (Debye)         (10**-30 SI)
   Tot        0.323576D+01      0.822447D+01      0.274339D+02
   x          0.000000D+00      0.000000D+00      0.000000D+00
   y          0.000000D+00      0.000000D+00      0.000000D+00
   z          0.323576D+01      0.822447D+01      0.274339D+02

 Dipole polarizability, Alpha (dipole orientation).
 (esu units = cm**3 , SI units = C**2 m**2 J**-1)
 Alpha(0;0):
               (au)            (10**-24 esu)      (10**-40 SI)
   iso        0.602193D+02      0.892358D+01      0.992882D+01
   aniso      0.175950D+02      0.260731D+01      0.290102D+01
   xx         0.505803D+02      0.749523D+01      0.833956D+01
   yx        -0.351342D+01     -0.520635D+00     -0.579284D+00
   yy         0.607651D+02      0.900447D+01      0.100188D+02
   zx         0.506944D+00      0.751213D-01      0.835837D-01
   zy        -0.162700D+01     -0.241097D+00     -0.268256D+00
   zz         0.693124D+02      0.102710D+02      0.114281D+02

 First dipole hyperpolarizability, Beta (dipole orientation).
 ||, _|_  parallel and perpendicular components, (z) with respect to z axis,
 vector components x,y,z.  Values do not include the 1/n! factor of 1/2.
 (esu units = statvolt**-1 cm**4 , SI units = C**3 m**3 J**-2)
 Beta(0;0,0):
               (au)            (10**-30 esu)      (10**-50 SI)
   || (z)     0.816387D+02      0.705295D+00      0.261763D+00
   _|_(z)     0.272129D+02      0.235098D+00      0.872544D-01
   x         -0.375930D+02     -0.324774D+00     -0.120537D+00
   y          0.120730D+03      0.104301D+01      0.387104D+00
   z          0.408193D+03      0.352647D+01      0.130882D+01
   ||         0.854660D+02      0.738359D+00      0.274035D+00
   xxx       -0.173416D+02     -0.149818D+00     -0.556036D-01
   xxy        0.182406D+02      0.157585D+00      0.584860D-01
   yxy       -0.427772D+01     -0.369561D-01     -0.137159D-01
   yyy        0.511779D+02      0.442137D+00      0.164095D+00
   xxz        0.145112D+02      0.125366D+00      0.465282D-01
   yxz       -0.147051D+02     -0.127040D+00     -0.471498D-01
   yyz        0.571411D+02      0.493654D+00      0.183215D+00
   zxz        0.908835D+01      0.785163D-01      0.291405D-01
   zyz       -0.291753D+02     -0.252052D+00     -0.935464D-01
   zzz        0.644122D+02      0.556471D+00      0.206529D+00

 ----------------------------------------------------------------------

 Test job not archived.
 1\1\NSC-N144\Freq\RHF\Aug-CC-pVTZ\C4H7O2(1-)\X_DAVVA\29-Sep-2025\0\\#P
  Geom=AllCheck Guess=TCheck SCRF=Check Test GenChk RHF/Aug-CC-pVTZ Fre
 q\\butanoate\\-1,1\C,-1.1132701864,0.1134386038,0.0015148067\C,0.43564
 22233,0.1881002948,-0.0058067753\O,1.0447039967,-0.8817217885,-0.02246
 85106\O,0.8906395053,1.3334035921,0.0061373534\C,-1.7145215012,-1.2851
 358873,-0.0129584664\H,-1.4560516739,0.6606217648,0.8770459008\H,-1.46
 53105292,0.6825446749,-0.8561834978\H,-1.3465357506,-1.8412398823,0.84
 19236799\H,-1.3557741014,-1.8193926222,-0.8855186802\C,-3.2427568232,-
 1.2802076605,-0.0047262044\H,-3.6309304907,-0.7804463251,0.8790292837\
 H,-3.6471452913,-2.2895647938,-0.0153346716\H,-3.6402893773,-0.7582999
 708,-0.8713542183\\Version=ES64L-G16RevC.01\State=1-A\HF=-305.4276295\
 RMSD=1.593e-09\RMSF=1.261e-07\ZeroPoint=0.1116872\Thermal=0.1182723\ET
 ot=-305.3093572\HTot=-305.308413\GTot=-305.3476075\Dipole=-3.075973,-1
 .0042378,0.0037269\DipoleDeriv=-0.3847219,-0.0542329,0.0028417,0.02534
 09,0.2098274,-0.0009573,0.0038529,-0.0005311,0.2752653,1.7649135,0.112
 7733,-0.0068548,0.0671796,2.4237005,0.0273853,-0.0074344,0.0271406,0.2
 119942,-1.2349988,0.5215677,0.0101566,0.3144599,-1.5847436,-0.0145898,
 0.007561,-0.0156878,-0.5554323,-1.1236767,-0.5923312,-0.0046295,-0.407
 9797,-1.8140395,-0.013097,-0.0023114,-0.0121156,-0.5969781,0.211159,-0
 .0440711,-0.0007957,-0.0025074,0.0480448,-0.001478,-0.0002786,-0.00125
 76,0.166639,-0.0171102,0.0265651,0.0653794,0.0163617,-0.0603039,-0.090
 9347,0.1095657,-0.1185351,-0.1321223,-0.0189877,0.0295003,-0.0658522,0
 .0201219,-0.065636,0.0923958,-0.1102908,0.1198906,-0.1249084,-0.013115
 1,0.0336923,-0.0583381,0.0136041,-0.0530236,0.094959,-0.0493642,0.1191
 691,-0.1092619,-0.0119818,0.0309513,0.0580937,0.0113578,-0.0476474,-0.
 0935266,0.0486191,-0.1179496,-0.1158033,-0.024525,0.0004578,0.0013207,
 -0.0294274,0.2183779,0.0001185,0.0009436,-0.0000424,0.2213851,-0.03229
 17,0.0244249,0.0554647,0.0745446,-0.0141303,-0.1108649,0.1185268,-0.09
 7282,-0.1478504,-0.0805119,-0.1161881,-0.0007842,-0.1817893,-0.2409605
 ,-0.0026811,-0.0016144,-0.0030318,0.0477278,-0.0341517,0.0268906,-0.05
 60021,0.0787332,-0.019466,0.1132707,-0.1177753,0.1002328,-0.1406546\Po
 lar=67.5887435,3.5753886,63.58093,-0.0514175,0.158156,49.4881481\Polar
 Deriv=-10.5961554,-1.5493292,2.780342,0.0651175,-0.0142019,2.3789537,-
 0.8485471,4.1725875,0.2396991,-0.0043831,0.1046206,-4.6615194,0.076685
 9,-0.0031638,0.1180104,2.8974016,-5.1328577,-0.2325984,13.3498924,2.49
 00381,-3.8350908,-0.0443407,-0.0496224,-0.5265234,2.745657,-3.7214165,
 -0.1457,-0.0538702,-0.001625,0.6176492,-0.0400669,-0.0508266,-0.005021
 9,-0.3292068,0.9335135,0.0376707,1.4153423,-2.5185213,3.1372754,-0.022
 9824,0.0252075,1.2270916,-2.4373464,2.8147065,-6.4385091,0.0135552,-0.
 0386092,-2.2769273,-0.0189318,0.014062,-0.0403524,1.7997872,-2.274072,
 -0.1112745,0.8749661,2.1775698,3.1255188,0.037873,0.0261854,1.1545027,
 1.0727671,2.8323086,8.5523889,0.021744,0.0301529,2.4886851,0.0268735,0
 .0156536,0.0289633,1.7003402,2.4597402,0.0686009,6.4084321,0.6527345,-
 3.9627415,-0.0630088,0.0143215,-3.0781159,-0.3708387,-4.2790221,-1.497
 937,0.0221205,-0.1252182,4.7887021,-0.0800554,0.0200332,-0.1349613,-3.
 8478692,5.4255066,0.2556574,-0.275372,0.7916574,-1.2181148,1.3332172,-
 0.5893047,-1.3652092,1.0624157,-1.1283038,2.4573811,-0.5519536,1.85007
 89,2.1720558,2.1974596,-0.4863492,2.7925949,-1.7652135,2.8224558,4.689
 7727,-0.3275153,0.8372841,-1.2786813,-1.342673,0.6135339,-1.3549256,1.
 1301421,-1.1753516,2.6236614,0.5788187,-1.8997564,2.1805523,-2.203977,
 0.5230686,-2.8573478,-1.74907,2.8071816,-4.4400833,0.8973274,-0.700705
 5,1.2781232,1.135149,-0.5842522,1.3208768,-0.9671775,1.2063916,-2.6622
 371,-0.5951265,1.9968092,-2.2593825,2.1064891,-0.5153095,2.7000711,1.7
 137598,-2.9546536,4.4651039,0.8505683,-0.6607333,1.2207632,-1.1292151,
 0.5580829,1.3249287,-0.9015187,1.158051,-2.4952441,0.5673685,-1.942720
 7,-2.2553216,-2.1027006,0.477326,-2.6289358,1.726544,-2.9672133,-4.723
 1884,-6.5552641,-0.3628974,3.6654041,0.072455,-0.0187869,3.4846295,0.8
 271839,5.5713998,5.4795639,-0.0137141,0.151968,-4.5803421,0.0921963,-0
 .0058627,0.1586039,4.3696048,-4.3007045,-0.2322659,-1.6709228,0.756309
 8,-0.9451688,1.5845129,-0.5886515,-1.9732165,1.5744602,-1.3596992,1.14
 29091,-0.9677374,1.3999348,2.2932578,2.8680599,-0.6484745,1.6648458,-2
 .7752288,1.9134819,5.0884596,-2.6356572,-2.7236429,-2.9736002,-0.02909
 7,-0.0186959,-0.6313969,-4.5553611,-4.6746193,-8.514138,-0.02656,-0.06
 3617,-0.832847,-0.0542649,-0.035536,-0.074665,-1.0022009,-0.6788646,-0
 .0136052,-1.7356418,0.810236,-0.9940293,-1.5970074,0.6261844,-1.961595
 5,1.6681636,-1.4170324,1.258162,1.009738,-1.462018,2.3254377,-2.867767
 7,0.6953789,-1.7218052,-2.7386486,1.946486,-4.8522494\HyperPolar=-48.1
 636776,-1.0874694,-78.7276219,-16.6330025,0.0779469,-0.7061849,-0.1828
 872,-15.533637,15.5562361,0.8392053\Quadrupole=-7.9063031,-0.9069307,8
 .8132339,-4.3920375,0.0336592,-0.0987186\PG=C01 [X(C4H7O2)]\NImag=0\\0
 .51359306,-0.02018519,0.59269944,0.00020629,0.00001453,0.59943947,-0.1
 5751813,-0.00038171,0.00024939,0.65839307,-0.00511362,-0.08367797,0.00
 035615,-0.03419716,1.05076069,0.00018971,0.00033132,-0.10992079,-0.002
 27387,0.00944895,0.31213350,-0.03570487,0.04324577,0.00088915,-0.27562
 256,0.20364164,0.00349163,0.27648797,0.02003397,-0.01009484,-0.0006039
 6,0.22915580,-0.45190768,-0.00563961,-0.26568995,0.59904336,0.00059892
 ,-0.00072829,0.02953183,0.00381189,-0.00550407,-0.09963750,-0.00462293
 ,0.00850075,0.03426291,-0.03264979,-0.05354202,-0.00037585,-0.21542022
 ,-0.16910938,-0.00151660,0.05350568,0.01510938,0.00009281,0.20591204,-
 0.02157827,-0.01964271,-0.00042052,-0.19166216,-0.50168855,-0.00399604
 ,0.01299887,-0.14160049,-0.00228811,0.21188173,0.65841335,0.00002608,-
 0.00024975,0.02307332,-0.00179956,-0.00411596,-0.10182217,0.00006637,-
 0.00229968,0.03527989,0.00175950,0.00666509,0.03719924,-0.11300060,-0.
 04145567,-0.00042641,-0.00260490,-0.03314204,-0.00041737,-0.00031697,-
 0.00103877,-0.00002585,-0.01131246,-0.00585462,0.00000382,0.53428446,-
 0.03371274,-0.20579660,-0.00122730,-0.01439044,0.00500464,0.00016777,0
 .00410764,-0.00508369,-0.00005059,0.00520258,0.00329091,-0.00002572,-0
 .03656530,0.57860882,-0.00032799,-0.00118616,-0.09448004,-0.00017932,0
 .00026809,-0.00219971,0.00003916,-0.00002334,-0.00277736,0.00014319,0.
 00003396,0.00309514,0.00020224,-0.00081512,0.65837856,-0.08051134,0.03
 948869,0.07363474,-0.00529473,0.01966313,0.03607090,-0.00776679,0.0017
 0738,-0.00556330,0.00107976,-0.00222546,-0.00552246,0.00348866,-0.0078
 9616,-0.01259956,0.08382205,0.04007028,-0.11867787,-0.10556187,-0.0004
 2901,-0.00323333,-0.00113762,0.00189716,0.00075332,0.00080678,-0.00161
 335,0.00076156,0.00091998,0.01120455,-0.01740148,-0.03055506,-0.042038
 61,0.13122164,0.06935757,-0.10559242,-0.22773479,-0.00472470,-0.003280
 82,-0.00020600,0.00133142,0.00048604,0.00001142,0.00065557,0.00301863,
 0.00180967,0.00037854,0.00088967,0.00031526,-0.07527641,0.11892786,0.2
 4768159,-0.08204407,0.04249617,-0.07412453,-0.00562573,0.02060166,-0.0
 3550248,-0.00772237,0.00156109,0.00568564,0.00113212,-0.00239576,0.005
 47032,0.00361919,-0.00822350,0.01236434,0.00441916,-0.00693140,0.00978
 879,0.08543787,0.04297116,-0.12407715,0.10772300,-0.00053713,-0.003341
 11,0.00105959,0.00192064,0.00078630,-0.00080663,-0.00160675,0.00086144
 ,-0.00092661,0.01153423,-0.01813924,0.02996797,-0.00683338,0.01013039,
 -0.01410134,-0.04523412,0.13729987,-0.06983622,0.10775878,-0.22080641,
 0.00477145,0.00298328,0.00023204,-0.00120078,-0.00048361,-0.00006746,-
 0.00068905,-0.00301758,0.00165875,-0.00012221,-0.00126907,0.00092313,-
 0.01028501,0.01508175,-0.02572118,0.07587389,-0.12123511,0.23999178,0.
 00553600,-0.00719847,0.01209762,0.00054027,-0.00083536,0.00066473,-0.0
 0096436,0.00019923,-0.00022745,0.00001884,0.00064941,-0.00011750,-0.08
 517644,0.04660759,-0.07195473,0.00043864,0.00079939,-0.00028755,-0.001
 03573,-0.00325060,0.00008493,0.09513355,0.01113170,-0.01834651,0.03075
 307,0.00248049,-0.00175061,0.00024433,-0.00054331,0.00217015,-0.001041
 56,-0.00067423,0.00090348,-0.00042748,0.04569689,-0.12635798,0.1076632
 2,0.00099828,0.00135367,-0.00078017,-0.00319042,-0.00674992,-0.0004507
 9,-0.04920940,0.13723183,0.00081127,-0.00065799,0.00039421,-0.00271884
 ,0.00266924,0.00010946,0.00020955,-0.00277252,0.00114468,0.00097659,-0
 .00066595,-0.00008961,-0.07114089,0.10927162,-0.23073245,0.00033390,0.
 00069145,0.00120792,0.00006213,-0.00015140,0.00197720,0.08099228,-0.12
 050858,0.24659850,0.00539765,-0.00688472,-0.01233339,0.00056241,-0.000
 84673,-0.00069114,-0.00096340,0.00022295,0.00025580,0.00000965,0.00065
 319,0.00013297,-0.08365090,0.04363562,0.07149260,-0.00103767,-0.003247
 24,-0.00013491,0.00043842,0.00078438,0.00031580,0.00425299,-0.00635023
 ,-0.00992728,0.09340573,0.01081725,-0.01757294,-0.03132653,0.00240797,
 -0.00167499,-0.00031478,-0.00052710,0.00207270,0.00107023,-0.00064452,
 0.00087488,0.00045870,0.04276336,-0.12092693,-0.10533763,-0.00318446,-
 0.00676053,0.00026366,0.00101459,0.00135155,0.00077309,-0.00644170,0.0
 0975704,0.01484260,-0.04588921,0.13119449,-0.00059122,0.00027715,-0.00
 024109,0.00277523,-0.00270489,0.00001286,-0.00020048,0.00279343,0.0012
 4133,-0.00099423,0.00068307,-0.00005234,0.07065674,-0.10695530,-0.2376
 8559,-0.00011050,-0.00003493,0.00198984,-0.00030019,-0.00069634,0.0012
 1016,0.00944470,-0.01387570,-0.02576272,-0.08052330,0.11807459,0.25436
 013,-0.01897422,-0.00351225,0.00005751,0.00123430,-0.00024473,-0.00000
 997,-0.00007212,-0.00014838,0.00000533,-0.00037095,-0.00062302,-0.0000
 0606,-0.21290249,0.00283404,0.00066819,0.00113155,0.00141795,0.0000441
 1,0.00114039,0.00142276,-0.00002144,-0.01409874,-0.00080510,0.00140367
 ,-0.01377199,-0.00075928,-0.00125310,0.52066161,-0.04158930,0.00330230
 ,0.00026222,0.00576820,-0.00826772,-0.00013462,-0.00028890,0.00321956,
 0.00002604,-0.00466697,-0.00203134,0.00000004,0.00318122,-0.09418592,-
 0.00001146,0.00019063,0.00104044,-0.00003230,0.00016942,0.00102969,0.0
 0005937,0.01913745,0.00032956,-0.00151805,0.01834567,0.00026540,0.0012
 7463,0.00173308,0.61179807,-0.00042383,0.00005915,0.00012313,0.0000658
 7,-0.00010244,-0.00004498,0.00000327,0.00002519,0.00127248,-0.00005724
 ,-0.00002195,-0.00004172,0.00067269,-0.00000968,-0.09461726,-0.0008622
 7,-0.00036701,-0.00010990,0.00085346,0.00038076,-0.00010814,-0.0315702
 9,-0.00115593,0.00211815,0.03221496,0.00112133,0.00185503,0.00048879,0
 .00003930,0.60795849,0.00253093,0.00178944,0.00075774,-0.00084984,0.00
 109624,-0.00040541,-0.00004569,-0.00106226,-0.00032005,0.00013056,-0.0
 0037023,0.00000851,-0.01106796,0.01828729,0.03431786,0.00000286,-0.001
 07420,-0.00077759,-0.00008275,-0.00013475,-0.00005149,0.00183510,0.000
 33938,-0.00091686,-0.00815028,-0.00050764,-0.00074013,-0.08644285,0.04
 090993,0.07334891,0.09345902,-0.00035646,0.00037939,0.00100740,-0.0002
 4563,-0.00008503,0.00012951,0.00011158,0.00004647,-0.00000084,0.000257
 00,0.00021409,-0.00001610,0.00033777,-0.00043181,-0.00092801,-0.000097
 68,0.00048286,0.00001750,-0.00001809,0.00003045,0.00003144,0.00025219,
 -0.00026662,0.00006452,0.00011963,0.00104085,0.00060396,0.04240065,-0.
 11300812,-0.09973001,-0.04725136,0.11761406,-0.00052884,-0.00042567,0.
 00005483,0.00009835,-0.00022727,0.00030576,-0.00010574,0.00044399,-0.0
 0005129,0.00023937,0.00039301,0.00001823,-0.00055661,-0.00014177,0.000
 06504,0.00018769,0.00066311,0.00048009,0.00008002,-0.00004777,-0.00006
 733,0.00069053,0.00005759,0.00106635,0.00000428,0.00003701,0.00198428,
 0.07545959,-0.09904006,-0.23389299,-0.08356228,0.11292146,0.25378863,-
 0.00918306,0.00432701,0.00010650,0.00305250,-0.00260166,-0.00004524,-0
 .00077318,0.00102443,0.00001625,-0.00216311,-0.00109952,-0.00000296,-0
 .00993459,-0.03903511,-0.00044468,0.00031092,0.00007996,-0.00040306,0.
 00031448,0.00006418,0.00040509,0.00166106,0.00065409,-0.00092089,0.001
 66989,0.00063538,0.00091960,-0.08949541,-0.08673495,-0.00092516,0.0043
 8627,0.01176487,-0.00150211,0.09562656,-0.00210863,0.00111139,0.000018
 69,0.00227534,-0.00005116,-0.00002203,-0.00098289,0.00053732,0.0000138
 0,-0.00085663,-0.00058011,-0.00000095,0.00300654,0.00187511,0.00001689
 ,0.00024404,0.00029939,0.00021248,0.00024350,0.00031782,-0.00021566,-0
 .00082145,0.00066831,-0.00063640,-0.00081212,0.00064109,0.00066124,-0.
 08911119,-0.28539087,-0.00240962,-0.00483863,-0.01577707,-0.00059069,0
 .09888973,0.31286503,0.00002524,-0.00001567,0.00052369,0.00001638,0.00
 000400,0.00073333,-0.00000905,0.00000313,-0.00014429,-0.00000004,0.000
 00029,-0.00013999,0.00008726,0.00024168,-0.00073099,0.00007256,0.00051
 389,0.00034264,-0.00006620,-0.00051523,0.00032062,0.00007588,-0.000423
 22,0.00000976,-0.00011416,0.00043242,0.00002820,-0.00095523,-0.0024223
 2,-0.05730833,-0.01166999,-0.02909426,0.00098832,0.00102734,0.00274950
 ,0.05379097,0.00252843,0.00181296,-0.00073873,-0.00084643,0.00108801,0
 .00044511,-0.00004134,-0.00107486,0.00029295,0.00012788,-0.00037416,-0
 .00001904,-0.01142502,0.01914849,-0.03372131,-0.00008307,-0.00013549,0
 .00004823,0.00000902,-0.00110061,0.00075502,-0.00814119,-0.00052812,0.
 00083538,0.00183749,0.00031536,0.00091688,-0.08803908,0.04384452,-0.07
 380916,0.00429464,-0.00727448,0.00949574,0.00452768,-0.00512762,0.0115
 1002,0.09525099,-0.00038015,0.00039406,-0.00099490,-0.00024458,-0.0000
 8718,-0.00013677,0.00010884,0.00005753,0.00000249,0.00026318,0.0002235
 0,0.00001843,0.00033184,-0.00045582,0.00090667,-0.00001637,0.00002995,
 -0.00002880,-0.00009314,0.00049992,-0.00001590,0.00011172,0.00105759,-
 0.00062854,0.00026880,-0.00026262,-0.00010091,0.04539548,-0.11810106,0
 .10217092,-0.00718320,0.00976048,-0.01404294,0.01203160,-0.01651625,0.
 02852581,-0.05059402,0.12339991,0.00049301,0.00041501,0.00004263,-0.00
 009227,0.00020576,0.00030421,0.00010843,-0.00042981,-0.00006664,-0.000
 23402,-0.00038391,0.00001159,0.00068806,-0.00007619,0.00044628,-0.0000
 8028,0.00005168,-0.00006654,-0.00018518,-0.00065090,0.00045684,0.00010
 684,-0.00005479,0.00195856,-0.00069224,-0.00009468,0.00105992,-0.07588
 138,0.10149719,-0.22720396,-0.00998921,0.01499344,-0.02473990,0.001769
 33,0.00020275,0.00158606,0.08398890,-0.11567555,0.24621095\\0.00000003
 ,0.00000011,-0.00000001,-0.00000002,-0.00000067,-0.00000001,-0.0000000
 5,0.00000027,0.00000001,0.00000005,0.00000025,0.00000001,0.00000006,-0
 .00000003,0.00000001,-0.00000002,0.00000001,0.,-0.00000001,0.,-0.00000
 002,-0.00000002,0.00000003,-0.00000003,-0.00000001,0.00000002,0.000000
 04,-0.00000001,0.,0.,0.,0.,0.,0.,0.,0.,0.,0.,0.\\\@


 IF YOU GIVE EVERYONE A PIECE OF YOUR MIND,
 PRETTY SOON IT WILL BE ALL GONE.
 Job cpu time:       0 days  3 hours 29 minutes 13.9 seconds.
 Elapsed time:       0 days  0 hours 26 minutes 18.9 seconds.
 File lengths (MBytes):  RWF=    163 Int=      0 D2E=      0 Chk=     20 Scr=      1
 Normal termination of Gaussian 16 at Mon Sep 29 00:41:03 2025.
