 Entering Gaussian System, Link 0=/software/sse/easybuild/prefix/software/Gaussian/16.C.01-avx2-nsc1/g16/g16.orig
 Input=acetate.wrap
 Output=acetate.log
 Initial command:
 /software/sse/easybuild/prefix/software/Gaussian/16.C.01-avx2-nsc1/g16/l1.exe "/scratch/local/Gau-1342427.inp" -scrdir="/scratch/local/"
 Entering Link 1 = /software/sse/easybuild/prefix/software/Gaussian/16.C.01-avx2-nsc1/g16/l1.exe PID=   1342428.
  
 Copyright (c) 1988-2019, Gaussian, Inc.  All Rights Reserved.
  
 This is part of the Gaussian(R) 16 program.  It is based on
 the Gaussian(R) 09 system (copyright 2009, Gaussian, Inc.),
 the Gaussian(R) 03 system (copyright 2003, Gaussian, Inc.),
 the Gaussian(R) 98 system (copyright 1998, Gaussian, Inc.),
 the Gaussian(R) 94 system (copyright 1995, Gaussian, Inc.),
 the Gaussian 92(TM) system (copyright 1992, Gaussian, Inc.),
 the Gaussian 90(TM) system (copyright 1990, Gaussian, Inc.),
 the Gaussian 88(TM) system (copyright 1988, Gaussian, Inc.),
 the Gaussian 86(TM) system (copyright 1986, Carnegie Mellon
 University), and the Gaussian 82(TM) system (copyright 1983,
 Carnegie Mellon University). Gaussian is a federally registered
 trademark of Gaussian, Inc.
  
 This software contains proprietary and confidential information,
 including trade secrets, belonging to Gaussian, Inc.
  
 This software is provided under written license and may be
 used, copied, transmitted, or stored only in accord with that
 written license.
  
 The following legend is applicable only to US Government
 contracts under FAR:
  
                    RESTRICTED RIGHTS LEGEND
  
 Use, reproduction and disclosure by the US Government is
 subject to restrictions as set forth in subparagraphs (a)
 and (c) of the Commercial Computer Software - Restricted
 Rights clause in FAR 52.227-19.
  
 Gaussian, Inc.
 340 Quinnipiac St., Bldg. 40, Wallingford CT 06492
  
  
 ---------------------------------------------------------------
 Warning -- This program may not be used in any manner that
 competes with the business of Gaussian, Inc. or will provide
 assistance to any competitor of Gaussian, Inc.  The licensee
 of this program is prohibited from giving any competitor of
 Gaussian, Inc. access to this program.  By using this program,
 the user acknowledges that Gaussian, Inc. is engaged in the
 business of creating and licensing software in the field of
 computational chemistry and represents and warrants to the
 licensee that it is not a competitor of Gaussian, Inc. and that
 it will not use this program in any manner prohibited above.
 ---------------------------------------------------------------
  

 Cite this work as:
 Gaussian 16, Revision C.01,
 M. J. Frisch, G. W. Trucks, H. B. Schlegel, G. E. Scuseria, 
 M. A. Robb, J. R. Cheeseman, G. Scalmani, V. Barone, 
 G. A. Petersson, H. Nakatsuji, X. Li, M. Caricato, A. V. Marenich, 
 J. Bloino, B. G. Janesko, R. Gomperts, B. Mennucci, H. P. Hratchian, 
 J. V. Ortiz, A. F. Izmaylov, J. L. Sonnenberg, D. Williams-Young, 
 F. Ding, F. Lipparini, F. Egidi, J. Goings, B. Peng, A. Petrone, 
 T. Henderson, D. Ranasinghe, V. G. Zakrzewski, J. Gao, N. Rega, 
 G. Zheng, W. Liang, M. Hada, M. Ehara, K. Toyota, R. Fukuda, 
 J. Hasegawa, M. Ishida, T. Nakajima, Y. Honda, O. Kitao, H. Nakai, 
 T. Vreven, K. Throssell, J. A. Montgomery, Jr., J. E. Peralta, 
 F. Ogliaro, M. J. Bearpark, J. J. Heyd, E. N. Brothers, K. N. Kudin, 
 V. N. Staroverov, T. A. Keith, R. Kobayashi, J. Normand, 
 K. Raghavachari, A. P. Rendell, J. C. Burant, S. S. Iyengar, 
 J. Tomasi, M. Cossi, J. M. Millam, M. Klene, C. Adamo, R. Cammi, 
 J. W. Ochterski, R. L. Martin, K. Morokuma, O. Farkas, 
 J. B. Foresman, and D. J. Fox, Gaussian, Inc., Wallingford CT, 2019.
 
 ******************************************
 Gaussian 16:  ES64L-G16RevC.01  3-Jul-2019
                30-Sep-2025 
 ******************************************
 %mem=12000MB
 %nprocshared=16
 Will use up to   16 processors via shared memory.
 %mem=32Gb
 %chk=acetate.chk
 ----------------------------------------------------------------------
 #P MP2/aug-cc-pvtz Opt=tight density=MP2 Pop=(MK,Hirshfeld) iop(6/33=2
 ) iop(6/42=6) maxdisk=128GB
 ----------------------------------------------------------------------
 1/7=10,18=20,19=15,38=1/1,3;
 2/9=110,12=2,17=6,18=5,40=1/2;
 3/5=16,6=1,7=10,11=9,25=1,30=1,71=1/1,2,3;
 4//1;
 5/5=2,38=5/2;
 8/6=4,10=1/1;
 9/15=2,16=-3/6;
 10/5=1/2;
 6/7=2,8=2,9=2,10=2,15=8,20=1,22=2,33=2,42=6,79=1/1,2;
 7/12=2/1,2,3,16;
 1/7=10,18=20,19=15/3(2);
 2/9=110/2;
 99//99;
 2/9=110/2;
 3/5=16,6=1,7=10,11=9,25=1,30=1,71=1/1,2,3;
 4/5=5,16=3,69=1/1;
 5/5=2,38=5/2;
 8/6=4,10=1/1;
 9/15=2,16=-3/6;
 10/5=1/2;
 7/12=2/1,2,3,16;
 1/7=10,18=20,19=15/3(-8);
 2/9=110/2;
 6/7=2,8=2,9=2,10=2,15=8,20=1,22=2,33=2,42=6,79=1/1,2;
 99/9=10/99;
 Leave Link    1 at Tue Sep 30 16:58:49 2025, MaxMem=  4294967296 cpu:               0.9 elap:               0.1
 (Enter /software/sse/easybuild/prefix/software/Gaussian/16.C.01-avx2-nsc1/g16/l101.exe)
 -------
 acetate
 -------
 Symbolic Z-matrix:
 Charge = -1 Multiplicity = 1
 C                    -1.33628  -0.00002  -0.00511 
 C                     0.2097    0.       -0.00957 
 O                     0.74312  -1.11089   0.00175 
 O                     0.74308   1.11092   0.00175 
 H                    -1.72751  -0.89026  -0.48403 
 H                    -1.67508   0.00016   1.02842 
 H                    -1.72753   0.89004  -0.48434 
 
 ITRead=  0  0  0  0  0  0  0
 MicOpt= -1 -1 -1 -1 -1 -1 -1
 NAtoms=      7 NQM=        7 NQMF=       0 NMMI=      0 NMMIF=      0
                NMic=       0 NMicF=      0.
                    Isotopes and Nuclear Properties:
 (Nuclear quadrupole moments (NQMom) in fm**2, nuclear magnetic moments (NMagM)
  in nuclear magnetons)

  Atom         1           2           3           4           5           6           7
 IAtWgt=          12          12          16          16           1           1           1
 AtmWgt=  12.0000000  12.0000000  15.9949146  15.9949146   1.0078250   1.0078250   1.0078250
 NucSpn=           0           0           0           0           1           1           1
 AtZEff=  -0.0000000  -0.0000000  -0.0000000  -0.0000000  -0.0000000  -0.0000000  -0.0000000
 NQMom=    0.0000000   0.0000000   0.0000000   0.0000000   0.0000000   0.0000000   0.0000000
 NMagM=    0.0000000   0.0000000   0.0000000   0.0000000   2.7928460   2.7928460   2.7928460
 AtZNuc=   6.0000000   6.0000000   8.0000000   8.0000000   1.0000000   1.0000000   1.0000000
 Leave Link  101 at Tue Sep 30 16:58:50 2025, MaxMem=  4294967296 cpu:               5.1 elap:               0.3
 (Enter /software/sse/easybuild/prefix/software/Gaussian/16.C.01-avx2-nsc1/g16/l103.exe)

 GradGradGradGradGradGradGradGradGradGradGradGradGradGradGradGradGradGrad
 Berny optimization.
 Initialization pass.
                           ----------------------------
                           !    Initial Parameters    !
                           ! (Angstroms and Degrees)  !
 --------------------------                            --------------------------
 ! Name  Definition              Value          Derivative Info.                !
 --------------------------------------------------------------------------------
 ! R1    R(1,2)                  1.546          estimate D2E/DX2                !
 ! R2    R(1,5)                  1.084          estimate D2E/DX2                !
 ! R3    R(1,6)                  1.0876         estimate D2E/DX2                !
 ! R4    R(1,7)                  1.0839         estimate D2E/DX2                !
 ! R5    R(2,3)                  1.2324         estimate D2E/DX2                !
 ! R6    R(2,4)                  1.2324         estimate D2E/DX2                !
 ! A1    A(2,1,5)              111.0795         estimate D2E/DX2                !
 ! A2    A(2,1,6)              108.3149         estimate D2E/DX2                !
 ! A3    A(2,1,7)              111.0794         estimate D2E/DX2                !
 ! A4    A(5,1,6)              107.9118         estimate D2E/DX2                !
 ! A5    A(5,1,7)              110.412          estimate D2E/DX2                !
 ! A6    A(6,1,7)              107.9115         estimate D2E/DX2                !
 ! A7    A(1,2,3)              115.6454         estimate D2E/DX2                !
 ! A8    A(1,2,4)              115.6446         estimate D2E/DX2                !
 ! A9    A(3,2,4)              128.694          estimate D2E/DX2                !
 ! D1    D(5,1,2,3)            -28.9983         estimate D2E/DX2                !
 ! D2    D(5,1,2,4)            152.328          estimate D2E/DX2                !
 ! D3    D(6,1,2,3)             89.3471         estimate D2E/DX2                !
 ! D4    D(6,1,2,4)            -89.3266         estimate D2E/DX2                !
 ! D5    D(7,1,2,3)           -152.308          estimate D2E/DX2                !
 ! D6    D(7,1,2,4)             29.0183         estimate D2E/DX2                !
 --------------------------------------------------------------------------------
 Trust Radius=3.00D-01 FncErr=1.00D-07 GrdErr=1.00D-07 EigMax=2.50D+02 EigMin=1.00D-04
 Number of steps in this run=     31 maximum allowed number of steps=    100.
 GradGradGradGradGradGradGradGradGradGradGradGradGradGradGradGradGradGrad

 Leave Link  103 at Tue Sep 30 16:58:50 2025, MaxMem=  4294967296 cpu:               0.2 elap:               0.0
 (Enter /software/sse/easybuild/prefix/software/Gaussian/16.C.01-avx2-nsc1/g16/l202.exe)
                          Input orientation:                          
 ---------------------------------------------------------------------
 Center     Atomic      Atomic             Coordinates (Angstroms)
 Number     Number       Type             X           Y           Z
 ---------------------------------------------------------------------
      1          6           0       -1.336280   -0.000020   -0.005110
      2          6           0        0.209700    0.000000   -0.009570
      3          8           0        0.743120   -1.110890    0.001750
      4          8           0        0.743080    1.110920    0.001750
      5          1           0       -1.727510   -0.890260   -0.484030
      6          1           0       -1.675080    0.000160    1.028420
      7          1           0       -1.727530    0.890040   -0.484340
 ---------------------------------------------------------------------
                    Distance matrix (angstroms):
                    1          2          3          4          5
     1  C    0.000000
     2  C    1.545986   0.000000
     3  O    2.357538   1.232372   0.000000
     4  O    2.357535   1.232382   2.221810   0.000000
     5  H    1.083952   2.184138   2.527582   3.216290   0.000000
     6  H    1.087644   2.151701   2.852398   2.852251   1.755876
     7  H    1.083949   2.184133   3.216227   2.527644   1.780300
                    6          7
     6  H    0.000000
     7  H    1.755870   0.000000
 Stoichiometry    C2H3O2(1-)
 Framework group  C1[X(C2H3O2)]
 Deg. of freedom    15
 Full point group                 C1      NOp   1
 Largest Abelian subgroup         C1      NOp   1
 Largest concise Abelian subgroup C1      NOp   1
                         Standard orientation:                         
 ---------------------------------------------------------------------
 Center     Atomic      Atomic             Coordinates (Angstroms)
 Number     Number       Type             X           Y           Z
 ---------------------------------------------------------------------
      1          6           0        1.336280    0.000008   -0.005109
      2          6           0       -0.209700    0.000004   -0.009569
      3          8           0       -0.743108    1.110900    0.001751
      4          8           0       -0.743092   -1.110910    0.001751
      5          1           0        1.727520    0.890243   -0.484029
      6          1           0        1.675080   -0.000176    1.028421
      7          1           0        1.727521   -0.890057   -0.484339
 ---------------------------------------------------------------------
 Rotational constants (GHZ):          11.8589170          10.1961787           5.6719293
 Leave Link  202 at Tue Sep 30 16:58:50 2025, MaxMem=  4294967296 cpu:               0.1 elap:               0.0
 (Enter /software/sse/easybuild/prefix/software/Gaussian/16.C.01-avx2-nsc1/g16/l301.exe)
 Standard basis: Aug-CC-pVTZ (5D, 7F)
 Ernie: Thresh=  0.10000D-02 Tol=  0.10000D-05 Strict=F.
 Ernie:  12 primitive shells out of 153 were deleted.
 There are   295 symmetry adapted cartesian basis functions of A   symmetry.
 There are   253 symmetry adapted basis functions of A   symmetry.
   253 basis functions,   369 primitive gaussians,   295 cartesian basis functions
    16 alpha electrons       16 beta electrons
       nuclear repulsion energy       113.3470772653 Hartrees.
 IExCor=    0 DFT=F Ex=HF Corr=None ExCW=0 ScaHFX=  1.000000
 ScaDFX=  1.000000  1.000000  1.000000  1.000000 ScalE2=  1.000000  1.000000
 IRadAn=      5 IRanWt=     -1 IRanGd=            0 ICorTp=0 IEmpDi=  4
 NAtoms=    7 NActive=    7 NUniq=    7 SFac= 1.00D+00 NAtFMM=   60 NAOKFM=F Big=F
 Integral buffers will be    131072 words long.
 Raffenetti 1 integral format.
 Two-electron integral symmetry is turned on.
 Leave Link  301 at Tue Sep 30 16:58:51 2025, MaxMem=  4294967296 cpu:               0.8 elap:               0.1
 (Enter /software/sse/easybuild/prefix/software/Gaussian/16.C.01-avx2-nsc1/g16/l302.exe)
 NPDir=0 NMtPBC=     1 NCelOv=     1 NCel=       1 NClECP=     1 NCelD=      1
         NCelK=      1 NCelE2=     1 NClLst=     1 CellRange=     0.0.
 One-electron integrals computed using PRISM.
 One-electron integral symmetry used in STVInt
 NBasis=   253 RedAO= T EigKep=  3.38D-05  NBF=   253
 NBsUse=   253 1.00D-06 EigRej= -1.00D+00 NBFU=   253
 Leave Link  302 at Tue Sep 30 16:58:51 2025, MaxMem=  4294967296 cpu:               2.3 elap:               0.2
 (Enter /software/sse/easybuild/prefix/software/Gaussian/16.C.01-avx2-nsc1/g16/l303.exe)
 DipDrv:  MaxL=1.
 Leave Link  303 at Tue Sep 30 16:58:52 2025, MaxMem=  4294967296 cpu:               0.4 elap:               0.0
 (Enter /software/sse/easybuild/prefix/software/Gaussian/16.C.01-avx2-nsc1/g16/l401.exe)
 ExpMin= 2.53D-02 ExpMax= 1.53D+04 ExpMxC= 5.22D+02 IAcc=3 IRadAn=         5 AccDes= 0.00D+00
 Harris functional with IExCor=  205 and IRadAn=       5 diagonalized for initial guess.
 HarFok:  IExCor=  205 AccDes= 0.00D+00 IRadAn=         5 IDoV= 1 UseB2=F ITyADJ=14
 ICtDFT=  3500011 ScaDFX=  1.000000  1.000000  1.000000  1.000000
 FoFCou: FMM=F IPFlag=           0 FMFlag=      100000 FMFlg1=           0
         NFxFlg=           0 DoJE=T BraDBF=F KetDBF=T FulRan=T
         wScrn=  0.000000 ICntrl=       500 IOpCl=  0 I1Cent=   200000004 NGrid=           0
         NMat0=    1 NMatS0=      1 NMatT0=    0 NMatD0=    1 NMtDS0=    0 NMtDT0=    0
 Petite list used in FoFCou.
 Harris En= -227.763321623523    
 JPrj=0 DoOrth=F DoCkMO=F.
 Leave Link  401 at Tue Sep 30 16:58:53 2025, MaxMem=  4294967296 cpu:               4.4 elap:               0.3
 (Enter /software/sse/easybuild/prefix/software/Gaussian/16.C.01-avx2-nsc1/g16/l502.exe)
 Keep R1 ints in memory in canonical form, NReq=529185072.
 FoFCou: FMM=F IPFlag=           0 FMFlag=           0 FMFlg1=           0
         NFxFlg=           0 DoJE=F BraDBF=F KetDBF=F FulRan=T
         wScrn=  0.000000 ICntrl=       600 IOpCl=  0 I1Cent=           0 NGrid=           0
         NMat0=    1 NMatS0=  32131 NMatT0=    0 NMatD0=    1 NMtDS0=    0 NMtDT0=    0
 Symmetry not used in FoFCou.
 Two-electron integral symmetry not used.
 Closed shell SCF:
 Using DIIS extrapolation, IDIIS=  1040.
 NGot=  4294967296 LenX=  3778569230 LenY=  3778481764
 Requested convergence on RMS density matrix=1.00D-08 within 128 cycles.
 Requested convergence on MAX density matrix=1.00D-06.
 Requested convergence on             energy=1.00D-06.
 No special actions if energy rises.

 Cycle   1  Pass 1  IDiag  1:
 E= -227.043271167804    
 DIIS: error= 3.83D-02 at cycle   1 NSaved=   1.
 NSaved= 1 IEnMin= 1 EnMin= -227.043271167804     IErMin= 1 ErrMin= 3.83D-02
 ErrMax= 3.83D-02  0.00D+00 EMaxC= 1.00D-01 BMatC= 5.67D-01 BMatP= 5.67D-01
 IDIUse=3 WtCom= 6.17D-01 WtEn= 3.83D-01
 Coeff-Com:  0.100D+01
 Coeff-En:   0.100D+01
 Coeff:      0.100D+01
 Gap=     0.586 Goal=   None    Shift=    0.000
 GapD=    0.586 DampG=2.000 DampE=0.500 DampFc=1.0000 IDamp=-1.
 RMSDP=2.31D-03 MaxDP=6.67D-02              OVMax= 1.63D-01

 Cycle   2  Pass 1  IDiag  1:
 E= -227.264044548642     Delta-E=       -0.220773380838 Rises=F Damp=F
 DIIS: error= 1.78D-02 at cycle   2 NSaved=   2.
 NSaved= 2 IEnMin= 2 EnMin= -227.264044548642     IErMin= 2 ErrMin= 1.78D-02
 ErrMax= 1.78D-02  0.00D+00 EMaxC= 1.00D-01 BMatC= 9.96D-02 BMatP= 5.67D-01
 IDIUse=3 WtCom= 8.22D-01 WtEn= 1.78D-01
 Coeff-Com:  0.247D+00 0.753D+00
 Coeff-En:   0.000D+00 0.100D+01
 Coeff:      0.203D+00 0.797D+00
 Gap=     0.351 Goal=   None    Shift=    0.000
 RMSDP=1.18D-03 MaxDP=3.30D-02 DE=-2.21D-01 OVMax= 7.48D-02

 Cycle   3  Pass 1  IDiag  1:
 E= -227.325240079391     Delta-E=       -0.061195530749 Rises=F Damp=F
 DIIS: error= 6.34D-03 at cycle   3 NSaved=   3.
 NSaved= 3 IEnMin= 3 EnMin= -227.325240079391     IErMin= 3 ErrMin= 6.34D-03
 ErrMax= 6.34D-03  0.00D+00 EMaxC= 1.00D-01 BMatC= 8.93D-03 BMatP= 9.96D-02
 IDIUse=3 WtCom= 9.37D-01 WtEn= 6.34D-02
 Coeff-Com: -0.186D-01 0.201D+00 0.818D+00
 Coeff-En:   0.000D+00 0.000D+00 0.100D+01
 Coeff:     -0.174D-01 0.188D+00 0.829D+00
 Gap=     0.324 Goal=   None    Shift=    0.000
 RMSDP=1.95D-04 MaxDP=6.33D-03 DE=-6.12D-02 OVMax= 1.68D-02

 Cycle   4  Pass 1  IDiag  1:
 E= -227.330449708205     Delta-E=       -0.005209628814 Rises=F Damp=F
 DIIS: error= 1.44D-03 at cycle   4 NSaved=   4.
 NSaved= 4 IEnMin= 4 EnMin= -227.330449708205     IErMin= 4 ErrMin= 1.44D-03
 ErrMax= 1.44D-03  0.00D+00 EMaxC= 1.00D-01 BMatC= 3.00D-04 BMatP= 8.93D-03
 IDIUse=3 WtCom= 9.86D-01 WtEn= 1.44D-02
 Coeff-Com: -0.103D-01 0.375D-01 0.244D+00 0.729D+00
 Coeff-En:   0.000D+00 0.000D+00 0.000D+00 0.100D+01
 Coeff:     -0.102D-01 0.370D-01 0.240D+00 0.733D+00
 Gap=     0.321 Goal=   None    Shift=    0.000
 RMSDP=5.63D-05 MaxDP=1.88D-03 DE=-5.21D-03 OVMax= 4.96D-03

 Cycle   5  Pass 1  IDiag  1:
 E= -227.330730096000     Delta-E=       -0.000280387795 Rises=F Damp=F
 DIIS: error= 2.93D-04 at cycle   5 NSaved=   5.
 NSaved= 5 IEnMin= 5 EnMin= -227.330730096000     IErMin= 5 ErrMin= 2.93D-04
 ErrMax= 2.93D-04  0.00D+00 EMaxC= 1.00D-01 BMatC= 1.57D-05 BMatP= 3.00D-04
 IDIUse=3 WtCom= 9.97D-01 WtEn= 2.93D-03
 Coeff-Com:  0.274D-02-0.203D-01-0.107D+00-0.643D-01 0.119D+01
 Coeff-En:   0.000D+00 0.000D+00 0.000D+00 0.000D+00 0.100D+01
 Coeff:      0.273D-02-0.202D-01-0.107D+00-0.641D-01 0.119D+01
 Gap=     0.322 Goal=   None    Shift=    0.000
 RMSDP=4.24D-05 MaxDP=1.72D-03 DE=-2.80D-04 OVMax= 2.75D-03

 Cycle   6  Pass 1  IDiag  1:
 E= -227.330757442167     Delta-E=       -0.000027346167 Rises=F Damp=F
 DIIS: error= 5.40D-05 at cycle   6 NSaved=   6.
 NSaved= 6 IEnMin= 6 EnMin= -227.330757442167     IErMin= 6 ErrMin= 5.40D-05
 ErrMax= 5.40D-05  0.00D+00 EMaxC= 1.00D-01 BMatC= 5.14D-07 BMatP= 1.57D-05
 IDIUse=1 WtCom= 1.00D+00 WtEn= 0.00D+00
 Coeff-Com:  0.649D-03-0.286D-02-0.148D-01-0.338D-01 0.856D-02 0.104D+01
 Coeff:      0.649D-03-0.286D-02-0.148D-01-0.338D-01 0.856D-02 0.104D+01
 Gap=     0.321 Goal=   None    Shift=    0.000
 RMSDP=7.04D-06 MaxDP=2.76D-04 DE=-2.73D-05 OVMax= 6.55D-04

 Cycle   7  Pass 1  IDiag  1:
 E= -227.330758671178     Delta-E=       -0.000001229011 Rises=F Damp=F
 DIIS: error= 1.76D-05 at cycle   7 NSaved=   7.
 NSaved= 7 IEnMin= 7 EnMin= -227.330758671178     IErMin= 7 ErrMin= 1.76D-05
 ErrMax= 1.76D-05  0.00D+00 EMaxC= 1.00D-01 BMatC= 4.75D-08 BMatP= 5.14D-07
 IDIUse=1 WtCom= 1.00D+00 WtEn= 0.00D+00
 Coeff-Com: -0.179D-03 0.141D-02 0.772D-02 0.316D-02-0.980D-01 0.997D-01
 Coeff-Com:  0.986D+00
 Coeff:     -0.179D-03 0.141D-02 0.772D-02 0.316D-02-0.980D-01 0.997D-01
 Coeff:      0.986D+00
 Gap=     0.321 Goal=   None    Shift=    0.000
 RMSDP=1.50D-06 MaxDP=3.08D-05 DE=-1.23D-06 OVMax= 1.90D-04

 Cycle   8  Pass 1  IDiag  1:
 E= -227.330758763379     Delta-E=       -0.000000092202 Rises=F Damp=F
 DIIS: error= 4.10D-06 at cycle   8 NSaved=   8.
 NSaved= 8 IEnMin= 8 EnMin= -227.330758763379     IErMin= 8 ErrMin= 4.10D-06
 ErrMax= 4.10D-06  0.00D+00 EMaxC= 1.00D-01 BMatC= 2.91D-09 BMatP= 4.75D-08
 IDIUse=1 WtCom= 1.00D+00 WtEn= 0.00D+00
 Coeff-Com: -0.361D-04 0.183D-03 0.629D-03 0.219D-02 0.321D-02-0.741D-01
 Coeff-Com: -0.537D-01 0.112D+01
 Coeff:     -0.361D-04 0.183D-03 0.629D-03 0.219D-02 0.321D-02-0.741D-01
 Coeff:     -0.537D-01 0.112D+01
 Gap=     0.321 Goal=   None    Shift=    0.000
 RMSDP=6.26D-07 MaxDP=2.86D-05 DE=-9.22D-08 OVMax= 5.82D-05

 Cycle   9  Pass 1  IDiag  1:
 E= -227.330758770528     Delta-E=       -0.000000007148 Rises=F Damp=F
 DIIS: error= 8.01D-07 at cycle   9 NSaved=   9.
 NSaved= 9 IEnMin= 9 EnMin= -227.330758770528     IErMin= 9 ErrMin= 8.01D-07
 ErrMax= 8.01D-07  0.00D+00 EMaxC= 1.00D-01 BMatC= 1.90D-10 BMatP= 2.91D-09
 IDIUse=1 WtCom= 1.00D+00 WtEn= 0.00D+00
 Coeff-Com:  0.118D-04-0.867D-04-0.480D-03-0.353D-03 0.478D-02 0.440D-02
 Coeff-Com: -0.608D-01-0.108D+00 0.116D+01
 Coeff:      0.118D-04-0.867D-04-0.480D-03-0.353D-03 0.478D-02 0.440D-02
 Coeff:     -0.608D-01-0.108D+00 0.116D+01
 Gap=     0.321 Goal=   None    Shift=    0.000
 RMSDP=2.14D-07 MaxDP=9.95D-06 DE=-7.15D-09 OVMax= 1.73D-05

 Cycle  10  Pass 1  IDiag  1:
 E= -227.330758771136     Delta-E=       -0.000000000608 Rises=F Damp=F
 DIIS: error= 3.51D-07 at cycle  10 NSaved=  10.
 NSaved=10 IEnMin=10 EnMin= -227.330758771136     IErMin=10 ErrMin= 3.51D-07
 ErrMax= 3.51D-07  0.00D+00 EMaxC= 1.00D-01 BMatC= 2.01D-11 BMatP= 1.90D-10
 IDIUse=1 WtCom= 1.00D+00 WtEn= 0.00D+00
 Coeff-Com:  0.110D-06 0.610D-05 0.723D-04-0.778D-04-0.159D-02 0.589D-02
 Coeff-Com:  0.163D-01-0.553D-01-0.331D+00 0.137D+01
 Coeff:      0.110D-06 0.610D-05 0.723D-04-0.778D-04-0.159D-02 0.589D-02
 Coeff:      0.163D-01-0.553D-01-0.331D+00 0.137D+01
 Gap=     0.321 Goal=   None    Shift=    0.000
 RMSDP=5.92D-08 MaxDP=2.07D-06 DE=-6.08D-10 OVMax= 7.32D-06

 Cycle  11  Pass 1  IDiag  1:
 E= -227.330758771215     Delta-E=       -0.000000000079 Rises=F Damp=F
 DIIS: error= 9.54D-08 at cycle  11 NSaved=  11.
 NSaved=11 IEnMin=11 EnMin= -227.330758771215     IErMin=11 ErrMin= 9.54D-08
 ErrMax= 9.54D-08  0.00D+00 EMaxC= 1.00D-01 BMatC= 1.90D-12 BMatP= 2.01D-11
 IDIUse=1 WtCom= 1.00D+00 WtEn= 0.00D+00
 Coeff-Com: -0.949D-06 0.506D-05 0.117D-04 0.624D-04 0.222D-03-0.288D-02
 Coeff-Com: -0.313D-03 0.296D-01 0.267D-01-0.502D+00 0.145D+01
 Coeff:     -0.949D-06 0.506D-05 0.117D-04 0.624D-04 0.222D-03-0.288D-02
 Coeff:     -0.313D-03 0.296D-01 0.267D-01-0.502D+00 0.145D+01
 Gap=     0.321 Goal=   None    Shift=    0.000
 RMSDP=1.57D-08 MaxDP=4.27D-07 DE=-7.85D-11 OVMax= 2.73D-06

 Cycle  12  Pass 1  IDiag  1:
 E= -227.330758771225     Delta-E=       -0.000000000010 Rises=F Damp=F
 DIIS: error= 2.35D-08 at cycle  12 NSaved=  12.
 NSaved=12 IEnMin=12 EnMin= -227.330758771225     IErMin=12 ErrMin= 2.35D-08
 ErrMax= 2.35D-08  0.00D+00 EMaxC= 1.00D-01 BMatC= 2.36D-13 BMatP= 1.90D-12
 IDIUse=1 WtCom= 1.00D+00 WtEn= 0.00D+00
 Coeff-Com: -0.165D-06 0.300D-06-0.292D-05 0.144D-04 0.142D-03-0.823D-03
 Coeff-Com: -0.103D-02 0.815D-02 0.235D-01-0.153D+00 0.131D+00 0.992D+00
 Coeff:     -0.165D-06 0.300D-06-0.292D-05 0.144D-04 0.142D-03-0.823D-03
 Coeff:     -0.103D-02 0.815D-02 0.235D-01-0.153D+00 0.131D+00 0.992D+00
 Gap=     0.321 Goal=   None    Shift=    0.000
 RMSDP=4.80D-09 MaxDP=1.81D-07 DE=-9.95D-12 OVMax= 6.55D-07

 SCF Done:  E(RHF) =  -227.330758771     A.U. after   12 cycles
            NFock= 12  Conv=0.48D-08     -V/T= 2.0005
 KE= 2.272137535833D+02 PE=-7.710441880238D+02 EE= 2.031525984039D+02
 Leave Link  502 at Tue Sep 30 16:59:03 2025, MaxMem=  4294967296 cpu:              45.6 elap:               9.5
 (Enter /software/sse/easybuild/prefix/software/Gaussian/16.C.01-avx2-nsc1/g16/l801.exe)
 ExpMin= 2.53D-02 ExpMax= 1.53D+04 ExpMxC= 5.22D+02 IAcc=3 IRadAn=         5 AccDes= 0.00D+00
 HarFok:  IExCor=  205 AccDes= 0.00D+00 IRadAn=         5 IDoV=-2 UseB2=F ITyADJ=14
 ICtDFT= 12500011 ScaDFX=  1.000000  1.000000  1.000000  1.000000
 Largest valence mixing into a core orbital is  2.16D-04
 Largest core mixing into a valence orbital is  3.04D-05
 Range of M.O.s used for correlation:     5   253
 NBasis=   253 NAE=    16 NBE=    16 NFC=     4 NFV=     0
 NROrb=    249 NOA=    12 NOB=    12 NVA=   237 NVB=   237

 **** Warning!!: The largest alpha MO coefficient is  0.42485424D+02

 Leave Link  801 at Tue Sep 30 16:59:03 2025, MaxMem=  4294967296 cpu:               0.8 elap:               0.1
 (Enter /software/sse/easybuild/prefix/software/Gaussian/16.C.01-avx2-nsc1/g16/l906.exe)
 Frozen-core derivative calculation, NFC=   4 NFV=   0.
 FulOut=F Deriv=T AODrv=T NAtomX=     7
   MMem=          19  MDisk=          12 MDiskD=          12
  W3Min=     1194160 MinDsk=     2186980 NBas6D=         295
 NBas2D=       44365    NTT=       43660    LW2=     3500000
    MDV=  4294244481 MDiskM=       72749 NBas2p=       44354
 Fully direct method using O(ONN) memory.
 IMap=   1   2   3   4   5   6   7   8   9  10  11  12  13  14  15  16
 JobTyp=1 Pass  1:  I=   5 to  16 NPSUse= 16 ParTrn=T ParDer=T DoDerP=T.
 Spin components of T(2) and E(2):
     alpha-alpha T2 =       0.3053908901D-01 E2=     -0.1052425197D+00
     alpha-beta  T2 =       0.1661039001D+00 E2=     -0.6173172020D+00
     beta-beta   T2 =       0.3053908901D-01 E2=     -0.1052425197D+00
 The integrals were generated   1 times.
 ANorm=    0.1107782505D+01
 E2 =    -0.8278022413D+00 EUMP2 =    -0.22815856101255D+03
 Leave Link  906 at Tue Sep 30 16:59:50 2025, MaxMem=  4294967296 cpu:             749.4 elap:              47.1
 (Enter /software/sse/easybuild/prefix/software/Gaussian/16.C.01-avx2-nsc1/g16/l1002.exe)
 Minotr:  Closed shell wavefunction.
          Computing MP2/KS-MP2 derivatives.
          Using Z-Vector for PSCF gradient.
          Skipping F1 and S1 gradient terms here.
          IDoAtm=1111111
          Frozen-core window.
          Direct CPHF calculation.
          Differentiating once with respect to electric field.
                with respect to dipole field.
          Differentiating once with respect to nuclear coordinates.
          Requested convergence is 1.0D-10 RMS, and 1.0D-09 maximum.
          NewPWx=F KeepS1=T KeepF1=T KeepIn=T MapXYZ=F SortEE=F KeepMc=T.
 Keep R1 ints in memory in canonical form, NReq=529186619.
 FoFCou: FMM=F IPFlag=           0 FMFlag=           0 FMFlg1=           0
         NFxFlg=           0 DoJE=F BraDBF=F KetDBF=F FulRan=T
         wScrn=  0.000000 ICntrl=       600 IOpCl=  0 I1Cent=           0 NGrid=           0
         NMat0=    1 NMatS0=  32131 NMatT0=    0 NMatD0=    1 NMtDS0=    0 NMtDT0=    0
 Symmetry not used in FoFCou.
 Two-electron integral symmetry not used.
          MDV=    4294967296 using IRadAn=       5.
          Solving linear equations separately, MaxMat=       0.
          There are     1 degrees of freedom in the 1st order CPHF.  IDoFFX=0 NUNeed=     1.
 LinEq1:  Iter=  0 NonCon=     1 RMS=4.40D-03 Max=6.44D-02 NDo=     1
 AX will form     1 AO Fock derivatives at one time.
 LinEq1:  Iter=  1 NonCon=     1 RMS=1.13D-03 Max=1.33D-02 NDo=     1
 LinEq1:  Iter=  2 NonCon=     1 RMS=3.74D-04 Max=4.09D-03 NDo=     1
 LinEq1:  Iter=  3 NonCon=     1 RMS=1.16D-04 Max=1.41D-03 NDo=     1
 LinEq1:  Iter=  4 NonCon=     1 RMS=3.85D-05 Max=5.42D-04 NDo=     1
 LinEq1:  Iter=  5 NonCon=     1 RMS=6.99D-06 Max=7.74D-05 NDo=     1
 LinEq1:  Iter=  6 NonCon=     1 RMS=1.42D-06 Max=2.65D-05 NDo=     1
 LinEq1:  Iter=  7 NonCon=     1 RMS=4.34D-07 Max=4.04D-06 NDo=     1
 LinEq1:  Iter=  8 NonCon=     1 RMS=9.64D-08 Max=9.01D-07 NDo=     1
 LinEq1:  Iter=  9 NonCon=     1 RMS=1.56D-08 Max=2.69D-07 NDo=     1
 LinEq1:  Iter= 10 NonCon=     1 RMS=2.88D-09 Max=4.51D-08 NDo=     1
 LinEq1:  Iter= 11 NonCon=     1 RMS=1.05D-09 Max=1.73D-08 NDo=     1
 LinEq1:  Iter= 12 NonCon=     1 RMS=5.41D-10 Max=8.94D-09 NDo=     1
 LinEq1:  Iter= 13 NonCon=     1 RMS=1.67D-10 Max=2.87D-09 NDo=     1
 LinEq1:  Iter= 14 NonCon=     0 RMS=2.94D-11 Max=4.34D-10 NDo=     1
 Linear equations converged to 1.000D-10 1.000D-09 after    14 iterations.
 End of Minotr F.D. properties file   721 does not exist.
 End of Minotr F.D. properties file   722 does not exist.
 End of Minotr F.D. properties file   788 does not exist.
 Leave Link 1002 at Tue Sep 30 17:00:02 2025, MaxMem=  4294967296 cpu:              47.5 elap:              11.8
 (Enter /software/sse/easybuild/prefix/software/Gaussian/16.C.01-avx2-nsc1/g16/l601.exe)
 Copying SCF densities to generalized density rwf, IOpCl= 0 IROHF=0.
 SCF density gives NOpUse=  1 NOpAll=  1.

 **********************************************************************

            Population analysis using the MP2 Density.

 **********************************************************************

 Orbital symmetries:
 BldTbl:  Degeneracy threshold= 1.00D-02
       Occupied  (A) (A) (A) (A) (A) (A) (A) (A) (A) (A) (A) (A)
                 (A) (A) (A) (A)
       Virtual   (A) (A) (A) (A) (A) (A) (A) (A) (A) (A) (A) (A)
                 (A) (A) (A) (A) (A) (A) (A) (A) (A) (A) (A) (A)
                 (A) (A) (A) (A) (A) (A) (A) (A) (A) (A) (A) (A)
                 (A) (A) (A) (A) (A) (A) (A) (A) (A) (A) (A) (A)
                 (A) (A) (A) (A) (A) (A) (A) (A) (A) (A) (A) (A)
                 (A) (A) (A) (A) (A) (A) (A) (A) (A) (A) (A) (A)
                 (A) (A) (A) (A) (A) (A) (A) (A) (A) (A) (A) (A)
                 (A) (A) (A) (A) (A) (A) (A) (A) (A) (A) (A) (A)
                 (A) (A) (A) (A) (A) (A) (A) (A) (A) (A) (A) (A)
                 (A) (A) (A) (A) (A) (A) (A) (A) (A) (A) (A) (A)
                 (A) (A) (A) (A) (A) (A) (A) (A) (A) (A) (A) (A)
                 (A) (A) (A) (A) (A) (A) (A) (A) (A) (A) (A) (A)
                 (A) (A) (A) (A) (A) (A) (A) (A) (A) (A) (A) (A)
                 (A) (A) (A) (A) (A) (A) (A) (A) (A) (A) (A) (A)
                 (A) (A) (A) (A) (A) (A) (A) (A) (A) (A) (A) (A)
                 (A) (A) (A) (A) (A) (A) (A) (A) (A) (A) (A) (A)
                 (A) (A) (A) (A) (A) (A) (A) (A) (A) (A) (A) (A)
                 (A) (A) (A) (A) (A) (A) (A) (A) (A) (A) (A) (A)
                 (A) (A) (A) (A) (A) (A) (A) (A) (A) (A) (A) (A)
                 (A) (A) (A) (A) (A) (A) (A) (A) (A)
 The electronic state is 1-A.
 Alpha  occ. eigenvalues --  -20.27989 -20.27986 -11.11936 -11.03662  -1.17374
 Alpha  occ. eigenvalues --   -1.06883  -0.79020  -0.50672  -0.41907  -0.41601
 Alpha  occ. eigenvalues --   -0.41218  -0.36180  -0.32133  -0.19988  -0.18904
 Alpha  occ. eigenvalues --   -0.18810
 Alpha virt. eigenvalues --    0.13328   0.14394   0.14536   0.18516   0.22077
 Alpha virt. eigenvalues --    0.22910   0.22940   0.24953   0.25211   0.26787
 Alpha virt. eigenvalues --    0.30881   0.32946   0.33258   0.35895   0.36270
 Alpha virt. eigenvalues --    0.37022   0.38798   0.39585   0.41434   0.42293
 Alpha virt. eigenvalues --    0.43161   0.46188   0.47194   0.49153   0.49158
 Alpha virt. eigenvalues --    0.49974   0.51114   0.51420   0.53963   0.54346
 Alpha virt. eigenvalues --    0.55762   0.58213   0.59157   0.59806   0.61445
 Alpha virt. eigenvalues --    0.63026   0.64091   0.66096   0.69720   0.70368
 Alpha virt. eigenvalues --    0.71537   0.73361   0.76126   0.80167   0.83582
 Alpha virt. eigenvalues --    0.88390   0.91504   0.93068   0.94470   0.95221
 Alpha virt. eigenvalues --    0.96053   0.97182   1.00336   1.00547   1.02861
 Alpha virt. eigenvalues --    1.04056   1.05484   1.06066   1.06680   1.07570
 Alpha virt. eigenvalues --    1.11872   1.11981   1.12300   1.13232   1.14676
 Alpha virt. eigenvalues --    1.16477   1.17525   1.21138   1.22277   1.23555
 Alpha virt. eigenvalues --    1.25143   1.25752   1.26435   1.29394   1.30766
 Alpha virt. eigenvalues --    1.32283   1.33802   1.36473   1.36751   1.39458
 Alpha virt. eigenvalues --    1.43037   1.44372   1.44540   1.48624   1.51178
 Alpha virt. eigenvalues --    1.55973   1.57258   1.60560   1.62282   1.63668
 Alpha virt. eigenvalues --    1.69188   1.69633   1.73739   1.74205   1.78440
 Alpha virt. eigenvalues --    1.81069   1.81162   1.84277   1.86388   1.87059
 Alpha virt. eigenvalues --    1.93099   1.94382   1.94531   1.95394   2.01564
 Alpha virt. eigenvalues --    2.01853   2.05508   2.07580   2.11899   2.12946
 Alpha virt. eigenvalues --    2.16288   2.21353   2.27724   2.29775   2.31439
 Alpha virt. eigenvalues --    2.35665   2.40281   2.40737   2.48350   2.52105
 Alpha virt. eigenvalues --    2.53408   2.55771   2.60329   2.68171   2.69199
 Alpha virt. eigenvalues --    2.72012   2.74081   2.76872   2.78902   2.81338
 Alpha virt. eigenvalues --    2.85379   2.86601   2.93276   2.95130   3.00634
 Alpha virt. eigenvalues --    3.01261   3.02898   3.05263   3.14662   3.17967
 Alpha virt. eigenvalues --    3.18801   3.19931   3.22790   3.30375   3.33373
 Alpha virt. eigenvalues --    3.35721   3.48066   3.56061   3.62285   3.63697
 Alpha virt. eigenvalues --    3.70309   3.73104   3.77482   3.79196   3.81084
 Alpha virt. eigenvalues --    3.83995   3.85677   3.95938   3.99786   4.01906
 Alpha virt. eigenvalues --    4.08215   4.09058   4.12920   4.15383   4.18296
 Alpha virt. eigenvalues --    4.25493   4.27014   4.31388   4.31688   4.35514
 Alpha virt. eigenvalues --    4.35601   4.40792   4.49517   4.50395   4.53189
 Alpha virt. eigenvalues --    4.61966   4.62422   4.70895   4.76611   4.80551
 Alpha virt. eigenvalues --    4.84266   4.85702   4.98065   5.00410   5.01918
 Alpha virt. eigenvalues --    5.06296   5.12426   5.20801   5.23630   5.26196
 Alpha virt. eigenvalues --    5.29437   5.38424   5.41170   5.47453   5.52751
 Alpha virt. eigenvalues --    5.60093   5.62626   5.77437   5.84007   5.87937
 Alpha virt. eigenvalues --    5.89567   6.13292   6.19757   6.33042   6.34744
 Alpha virt. eigenvalues --    6.37305   6.57456   6.85115   6.87174   6.89457
 Alpha virt. eigenvalues --    6.91622   6.92301   6.96367   7.14497   7.15154
 Alpha virt. eigenvalues --    7.15161   7.25168   7.33183   7.39349   7.47189
 Alpha virt. eigenvalues --    7.52999   7.58308   7.60013   7.62649   7.70607
 Alpha virt. eigenvalues --    7.83010   7.86915   7.91726   7.97351   8.04243
 Alpha virt. eigenvalues --    8.14952   8.20173   8.26620  15.14686  15.84399
 Alpha virt. eigenvalues --   17.21166  18.77249
          Condensed to atoms (all electrons):
               1          2          3          4          5          6
     1  C    6.737127  -0.184886  -0.142842  -0.142859   0.160031   0.132920
     2  C   -0.184886   5.271250   0.287591   0.287609   0.003667   0.028064
     3  O   -0.142842   0.287591   8.701717  -0.160035   0.005287   0.011486
     4  O   -0.142859   0.287609  -0.160035   8.701722  -0.006586   0.011495
     5  H    0.160031   0.003667   0.005287  -0.006586   0.532663   0.017652
     6  H    0.132920   0.028064   0.011486   0.011495   0.017652   0.543716
     7  H    0.160026   0.003675  -0.006588   0.005291   0.000907   0.017663
               7
     1  C    0.160026
     2  C    0.003675
     3  O   -0.006588
     4  O    0.005291
     5  H    0.000907
     6  H    0.017663
     7  H    0.532669
 Mulliken charges:
               1
     1  C   -0.719518
     2  C    0.303031
     3  O   -0.696617
     4  O   -0.696637
     5  H    0.286378
     6  H    0.237004
     7  H    0.286358
 Sum of Mulliken charges =  -1.00000
 Mulliken charges with hydrogens summed into heavy atoms:
               1
     1  C    0.090223
     2  C    0.303031
     3  O   -0.696617
     4  O   -0.696637
 DipInt: DoE/N= T F RetVal/Mat= T F Init=T NMatP=  1 IDeriv=0 Min/MaxMlt=  0  4
 Entering OneElI...
 OneElI was handed  4294742973 working-precision words.
 Multipole integrals L=0 to 4 MinM= 0 MaxM= 0.
 Requested accuracy = 0.1000D-12
 ShPair: Thresh= 1.00D-13 NBox=     0 BxSize= 0.00D+00 RnKept= 6.08D+00
         NSMCal=                 3486 NSMKep=                3481
 PrmmSu-InSpLW:  IPartL=    0 NPrtUS=    1 NPrtUL=    1 DoSpLW=F IThBeg=    0 IThEnd=    0 NThAct=    1.
 PrSmSu:  IncTry=   512 NBBP=           3481 NTPThr=   100 NPartT=    1 Incr=          34 LDynOK=F GPUOK=F.
 PrsmSu:  NPrtUS=   1 ThrOK=F IAlg=2 LenDen=           0 ISkipM=0 DoSpLW=F IThBeg=    0 IThEnd=    0.
 Prism:   IPart=     0 DynPar=F LinDyn=F Incr=          34.
 PRISM was handed  4294480254 working-precision words and  3481 shell-pairs
 IPart=  0 NShTot=        3481 NBatch=          66 AvBLen=        52.7
 PrsmSu-ThDecC:  IPartSL=    0    0 NPrtUSL=    1    1 IThBeg=    0 IThEnd=    0 CPU=   -1 GPU=   -1 NThAct=    1.
 PrSmSu:  NxtVal=             35.
 Electronic moments (au):
        -32.00000000          1.40871296          0.00003689         -0.00486116
       -126.75690456       -102.98724944        -24.80461999         -0.00003638
          0.02875005         -0.00000527       -159.70761714         -0.00005655
         -5.23229868         88.31875591         -0.00217687          0.16489767
        -18.70797927          0.00252405          4.19966238         -0.00007347
      -1193.33088351       -736.75444096       -112.84083072         -0.00119711
          2.71096728         -0.00953700          0.00004167        -16.32599078
          0.00017054       -357.87010732       -156.40563637        -85.20261362
         -0.00041940         14.78991614          0.00747789
 Electronic spatial extent (au):  <R**2>=            254.5488
 DipInt: DoE/N= F T RetVal/Mat= T F Init=T NMatP=  1 IDeriv=0 Min/MaxMlt=  0  4
 Nuclear    moments (au):
         31.00000000         -0.00000000          0.00000000          0.00000000
        102.08751376         76.17257257          5.45399144         -0.00000000
          0.00025375          0.00001373        153.23474120          0.00094737
          5.80818692        -80.54416233          0.00212184         -0.31095185
         17.42207392         -0.00276317         -4.94469808          0.00011620
        633.88796081        326.77179167         15.66698356          0.00041694
         -3.09679721          0.01038754          0.00003688         18.23379175
         -0.00023624        199.35891166         55.69322789          4.73852933
          0.00059889        -17.23147787         -0.00889876
 Total      moments (au):
         -1.00000000          1.40871296          0.00003689         -0.00486116
        -24.66939080        -26.81467687        -19.35062855         -0.00003638
          0.02900380          0.00000846         -6.47287595          0.00089082
          0.57588824          7.77459359         -0.00005504         -0.14605418
         -1.28590535         -0.00023913         -0.74503570          0.00004273
       -559.44292270       -409.98264929        -97.17384717         -0.00078016
         -0.38582993          0.00085054          0.00007854          1.90780098
         -0.00006570       -158.51119567       -100.71240848        -80.46408429
          0.00017948         -2.44156173         -0.00142087
 Traceless Quadrup. (au):
         -1.05782539         -3.20311146          4.26093686         -0.00003638
          0.02900380          0.00000846
 Charge=             -1.0000 electrons
 Dipole moment (field-independent basis, Debye):
    X=              3.5806    Y=              0.0001    Z=             -0.0124  Tot=              3.5806
 Quadrupole moment (field-independent basis, Debye-Ang):
   XX=            -33.1812   YY=            -36.0667   ZZ=            -26.0273
   XY=             -0.0000   XZ=              0.0390   YZ=              0.0000
 Traceless Quadrupole moment (field-independent basis, Debye-Ang):
   XX=             -1.4228   YY=             -4.3083   ZZ=              5.7311
   XY=             -0.0000   XZ=              0.0390   YZ=              0.0000
 Octapole moment (field-independent basis, Debye-Ang**2):
  XXX=             -4.6071  YYY=              0.0006  ZZZ=              0.4099  XYY=              5.5337
  XXY=             -0.0000  XXZ=             -0.1040  XZZ=             -0.9153  YZZ=             -0.0002
  YYZ=             -0.5303  XYZ=              0.0000
 Hexadecapole moment (field-independent basis, Debye-Ang**3):
 XXXX=           -210.7130 YYYY=           -154.4191 ZZZZ=            -36.6003 XXXY=             -0.0003
 XXXZ=             -0.1453 YYYX=              0.0003 YYYZ=              0.0000 ZZZX=              0.7186
 ZZZY=             -0.0000 XXYY=            -59.7029 XXZZ=            -37.9331 YYZZ=            -30.3066
 XXYZ=              0.0001 YYXZ=             -0.9196 ZZXY=             -0.0005
 N-N= 1.133470772653D+02 E-N=-7.712928540024D+02  KE= 2.281908644173D+02
 SetAtRh:  ITypeU=  23 NETotI=      -1 ICharg=  0 NETot=      31.
 StAtR1:  I=    1 I1=    1 IA=  6 C=   6.0 OKShel=TTT
                                                  SSP
                                                  222
 StAtR1:  I=    2 I1=    2 IA=  6 C=   6.0 OKShel=TTT
                                                  SSP
                                                  222
 StAtR1:  I=    3 I1=    3 IA=  8 C=   8.0 OKShel=TTT
                                                  SSP
                                                  224
 StAtR1:  I=    4 I1=    4 IA=  8 C=   8.0 OKShel=TTT
                                                  SSP
                                                  224
 StAtR1:  I=    5 I1=    5 IA=  1 C=   1.0 OKShel=T
                                                  S
                                                  1
 StAtR1:  I=    6 I1=    6 IA=  1 C=   1.0 OKShel=T
                                                  S
                                                  1
 StAtR1:  I=    7 I1=    7 IA=  1 C=   1.0 OKShel=T
                                                  S
                                                  1
          I=    1 IA=  6 I1=    1 NAtG=23 NE=   6.000 C=   6.000 Err= 1.75D-11
          I=    2 IA=  6 I1=    2 NAtG=23 NE=   6.000 C=   6.000 Err= 1.75D-11
          I=    3 IA=  8 I1=    3 NAtG=23 NE=   8.000 C=   8.000 Err=-3.68D-11
          I=    4 IA=  8 I1=    4 NAtG=23 NE=   8.000 C=   8.000 Err=-3.68D-11
          I=    5 IA=  1 I1=    5 NAtG=20 NE=   1.000 C=   1.000 Err= 2.80D-12
          I=    6 IA=  1 I1=    6 NAtG=20 NE=   1.000 C=   1.000 Err= 2.80D-12
          I=    7 IA=  1 I1=    7 NAtG=20 NE=   1.000 C=   1.000 Err= 2.80D-12
 Pruned (  99, 590) grid will be used in numerical quadrature.
 IPart=  0 IRanGd=          0 ScrnBf=T ScrnGd=T RCrit=4.00D+00 DoMicB=T.
 CutRad = 1000.00    CtRdIn =    0.00    XCrit =  15.00   ICut = 0
 Pruned (  99, 590) grid will be used in numerical quadrature.
 Pruned (  99, 590) grid will be used in numerical quadrature.
 Pruned (  99, 590) grid will be used in numerical quadrature.
 IPart=  1 IRanGd=          0 ScrnBf=T ScrnGd=T RCrit=4.00D+00 DoMicB=T.
 IPart=  0 Atom number   1 atomic number  6 has       23114 grid points.
 IPart=  4 IRanGd=          0 ScrnBf=T ScrnGd=T RCrit=4.00D+00 DoMicB=T.
 CutRad = 1000.00    CtRdIn =    0.00    XCrit =  15.00   ICut = 0
 Pruned (  99, 590) grid will be used in numerical quadrature.
 Pruned (  99, 590) grid will be used in numerical quadrature.
 IPart=  5 IRanGd=          0 ScrnBf=T ScrnGd=T RCrit=4.00D+00 DoMicB=T.
 Pruned (  99, 590) grid will be used in numerical quadrature.
 CutRad = 1000.00    CtRdIn =    0.00    XCrit =  15.00   ICut = 0
 IPart= 12 IRanGd=          0 ScrnBf=T ScrnGd=T RCrit=4.00D+00 DoMicB=T.
 IPart= 13 IRanGd=          0 ScrnBf=T ScrnGd=T RCrit=4.00D+00 DoMicB=T.
 CutRad = 1000.00    CtRdIn =    0.00    XCrit =  15.00   ICut = 0
 Pruned (  99, 590) grid will be used in numerical quadrature.
 CutRad = 1000.00    CtRdIn =    0.00    XCrit =  15.00   ICut = 0
 Pruned (  99, 590) grid will be used in numerical quadrature.
 IPart=  0 Atom   1 batch    1 overlaps    7 atoms,    81 shells and     7 DB shells.   NGrid=      2408
 IPart= 14 IRanGd=          0 ScrnBf=T ScrnGd=T RCrit=4.00D+00 DoMicB=T.
 IPart= 15 IRanGd=          0 ScrnBf=T ScrnGd=T RCrit=4.00D+00 DoMicB=T.
 CutRad = 1000.00    CtRdIn =    0.00    XCrit =  15.00   ICut = 0
 CutRad = 1000.00    CtRdIn =    0.00    XCrit =  15.00   ICut = 0
 Pruned (  99, 590) grid will be used in numerical quadrature.
 Pruned (  99, 590) grid will be used in numerical quadrature.
 IPart=  7 IRanGd=          0 ScrnBf=T ScrnGd=T RCrit=4.00D+00 DoMicB=T.
 CutRad = 1000.00    CtRdIn =    0.00    XCrit =  15.00   ICut = 0
 Symmetry reduced    86 angular points to    86 for atom    1.
 Pruned (  99, 590) grid will be used in numerical quadrature.
 Pruned (  99, 590) grid will be used in numerical quadrature.
 Pruned (  99, 590) grid will be used in numerical quadrature.
 IPart=  9 IRanGd=          0 ScrnBf=T ScrnGd=T RCrit=4.00D+00 DoMicB=T.
 CutRad = 1000.00    CtRdIn =    0.00    XCrit =  15.00   ICut = 0
 IPart=  3 IRanGd=          0 ScrnBf=T ScrnGd=T RCrit=4.00D+00 DoMicB=T.
 IPart= 10 IRanGd=          0 ScrnBf=T ScrnGd=T RCrit=4.00D+00 DoMicB=T.
 IPart=  6 IRanGd=          0 ScrnBf=T ScrnGd=T RCrit=4.00D+00 DoMicB=T.
 CutRad = 1000.00    CtRdIn =    0.00    XCrit =  15.00   ICut = 0
 Pruned (  99, 590) grid will be used in numerical quadrature.
 CutRad = 1000.00    CtRdIn =    0.00    XCrit =  15.00   ICut = 0
 CutRad = 1000.00    CtRdIn =    0.00    XCrit =  15.00   ICut = 0
 IPart= 11 IRanGd=          0 ScrnBf=T ScrnGd=T RCrit=4.00D+00 DoMicB=T.
 CutRad = 1000.00    CtRdIn =    0.00    XCrit =  15.00   ICut = 0
 Pruned (  99, 590) grid will be used in numerical quadrature.
 Pruned (  99, 590) grid will be used in numerical quadrature.
 IPart=  2 IRanGd=          0 ScrnBf=T ScrnGd=T RCrit=4.00D+00 DoMicB=T.
 CutRad = 1000.00    CtRdIn =    0.00    XCrit =  15.00   ICut = 0
 Pruned (  99, 590) grid will be used in numerical quadrature.
 IPart=  8 IRanGd=          0 ScrnBf=T ScrnGd=T RCrit=4.00D+00 DoMicB=T.
 CutRad = 1000.00    CtRdIn =    0.00    XCrit =  15.00   ICut = 0
 IPart=  4 Atom number   1 atomic number  6 has       23114 grid points.
 CutRad = 1000.00    CtRdIn =    0.00    XCrit =  15.00   ICut = 0
 Pruned (  99, 590) grid will be used in numerical quadrature.
 IPart=  4 Atom   1 batch    2 overlaps    7 atoms,    81 shells and     7 DB shells.   NGrid=      2522
 Pruned (  99, 590) grid will be used in numerical quadrature.
 IPart=  5 Atom number   1 atomic number  6 has       23114 grid points.
 IPart= 13 Atom number   1 atomic number  6 has       23114 grid points.
 IPart=  5 Atom   1 batch    3 overlaps    7 atoms,    81 shells and     7 DB shells.   NGrid=      2114
 IPart= 13 Atom   1 batch    4 overlaps    7 atoms,    81 shells and     7 DB shells.   NGrid=      1180
 Pruned (  99, 590) grid will be used in numerical quadrature.
 Symmetry reduced   302 angular points to   302 for atom    1.
 IPart= 12 Atom number   1 atomic number  6 has       23114 grid points.
 IPart= 12 Atom   1 batch    5 overlaps    7 atoms,    81 shells and     7 DB shells.   NGrid=      1180
 Symmetry reduced   590 angular points to   590 for atom    1.
 Symmetry reduced   590 angular points to   590 for atom    1.
 Pruned (  99, 590) grid will be used in numerical quadrature.
 Symmetry reduced   194 angular points to   194 for atom    1.
 IPart=  1 Atom number   1 atomic number  6 has       23114 grid points.
 Pruned (  99, 590) grid will be used in numerical quadrature.
 IPart=  1 Atom   1 batch    6 overlaps    7 atoms,    81 shells and     7 DB shells.   NGrid=      1180
 IPart= 15 Atom number   1 atomic number  6 has       23114 grid points.
 Pruned (  99, 590) grid will be used in numerical quadrature.
 Symmetry reduced   590 angular points to   590 for atom    1.
 IPart= 15 Atom   1 batch    7 overlaps    7 atoms,    83 shells and     7 DB shells.   NGrid=      1180
 IPart=  7 Atom number   1 atomic number  6 has       23114 grid points.
 Symmetry reduced   590 angular points to   590 for atom    1.
 IPart=  7 Atom   1 batch    8 overlaps    7 atoms,    83 shells and     7 DB shells.   NGrid=      1180
 Symmetry reduced   590 angular points to   590 for atom    1.
 Pruned (  99, 590) grid will be used in numerical quadrature.
 IPart=  9 Atom number   1 atomic number  6 has       23114 grid points.
 IPart=  9 Atom   1 batch    9 overlaps    7 atoms,    83 shells and     7 DB shells.   NGrid=      1180
 Pruned (  99, 590) grid will be used in numerical quadrature.
 Symmetry reduced   590 angular points to   590 for atom    1.
 IPart= 14 Atom number   1 atomic number  6 has       23114 grid points.
 IPart= 14 Atom   1 batch   10 overlaps    7 atoms,    83 shells and     7 DB shells.   NGrid=      1180
 Pruned (  99, 590) grid will be used in numerical quadrature.
 Symmetry reduced   590 angular points to   590 for atom    1.
 IPart=  6 Atom number   1 atomic number  6 has       23114 grid points.
 Pruned (  99, 590) grid will be used in numerical quadrature.
 IPart=  6 Atom   1 batch   11 overlaps    7 atoms,    82 shells and     7 DB shells.   NGrid=      1180
 IPart= 11 Atom number   1 atomic number  6 has       23114 grid points.
 Symmetry reduced   590 angular points to   590 for atom    1.
 IPart= 11 Atom   1 batch   13 overlaps    7 atoms,    82 shells and     7 DB shells.   NGrid=       604
 Pruned (  99, 590) grid will be used in numerical quadrature.
 Symmetry reduced   302 angular points to   302 for atom    1.
 IPart= 10 Atom number   1 atomic number  6 has       23114 grid points.
 Pruned (  99, 590) grid will be used in numerical quadrature.
 IPart= 10 Atom   1 batch   12 overlaps    7 atoms,    82 shells and     7 DB shells.   NGrid=       590
 IPart=  2 Atom number   1 atomic number  6 has       23114 grid points.
 Pruned (  99, 590) grid will be used in numerical quadrature.
 Symmetry reduced   590 angular points to   590 for atom    1.
 IPart=  8 Atom number   1 atomic number  6 has       23114 grid points.
 Pruned (  99, 590) grid will be used in numerical quadrature.
 IPart=  8 Atom   1 batch   15 overlaps    7 atoms,    78 shells and     7 DB shells.   NGrid=       604
 IPart=  3 Atom number   1 atomic number  6 has       23114 grid points.
 Symmetry reduced   302 angular points to   302 for atom    1.
 IPart=  2 Atom   1 batch   14 overlaps    7 atoms,    82 shells and     7 DB shells.   NGrid=       604
 IPart=  3 Atom   1 batch   16 overlaps    7 atoms,    69 shells and     7 DB shells.   NGrid=       604
 Symmetry reduced   302 angular points to   302 for atom    1.
 Symmetry reduced   302 angular points to   302 for atom    1.
 IPart=  3 Atom   1 batch   17 overlaps    7 atoms,    57 shells and     7 DB shells.   NGrid=       604
 IPart=  8 Atom   1 batch   18 overlaps    7 atoms,    44 shells and     7 DB shells.   NGrid=       604
 IPart=  2 Atom   1 batch   19 overlaps    7 atoms,    30 shells and     7 DB shells.   NGrid=       604
 IPart= 10 Atom   1 batch   20 overlaps    7 atoms,    20 shells and     1 DB shells.   NGrid=       604
 Symmetry reduced   302 angular points to   302 for atom    1.
 IPart=  8 Atom   1 batch   21 overlaps    7 atoms,    11 shells and     0 DB shells.   NGrid=       604
 IPart= 10 Atom   1 batch   22 overlaps    7 atoms,     3 shells and     0 DB shells.   NGrid=       604
 Pruned (  99, 590) grid will be used in numerical quadrature.
 IPart=  2 Atom number   2 atomic number  6 has       23114 grid points.
 IPart=  2 Atom   2 batch    1 overlaps    7 atoms,    83 shells and     7 DB shells.   NGrid=      2408
 Symmetry reduced    86 angular points to    86 for atom    2.
 Pruned (  99, 590) grid will be used in numerical quadrature.
 IPart= 11 Atom number   2 atomic number  6 has       23114 grid points.
 IPart= 11 Atom   2 batch    2 overlaps    7 atoms,    83 shells and     7 DB shells.   NGrid=      2522
 Symmetry reduced   194 angular points to   194 for atom    2.
 Pruned (  99, 590) grid will be used in numerical quadrature.
 IPart=  8 Atom number   2 atomic number  6 has       23114 grid points.
 IPart=  8 Atom   2 batch    3 overlaps    7 atoms,    83 shells and     7 DB shells.   NGrid=      2114
 Symmetry reduced   302 angular points to   302 for atom    2.
 Pruned (  99, 590) grid will be used in numerical quadrature.
 Pruned (  99, 590) grid will be used in numerical quadrature.
 IPart=  3 Atom number   2 atomic number  6 has       23114 grid points.
 IPart= 10 Atom number   2 atomic number  6 has       23114 grid points.
 IPart=  3 Atom   2 batch    4 overlaps    7 atoms,    83 shells and     7 DB shells.   NGrid=      1180
 IPart= 10 Atom   2 batch    5 overlaps    7 atoms,    83 shells and     7 DB shells.   NGrid=      1180
 Symmetry reduced   590 angular points to   590 for atom    2.
 Symmetry reduced   590 angular points to   590 for atom    2.
 Pruned (  99, 590) grid will be used in numerical quadrature.
 IPart=  6 Atom number   2 atomic number  6 has       23114 grid points.
 IPart=  6 Atom   2 batch    6 overlaps    7 atoms,    83 shells and     7 DB shells.   NGrid=      1180
 Symmetry reduced   590 angular points to   590 for atom    2.
 Pruned (  99, 590) grid will be used in numerical quadrature.
 IPart= 14 Atom number   2 atomic number  6 has       23114 grid points.
 IPart= 14 Atom   2 batch    7 overlaps    7 atoms,    83 shells and     7 DB shells.   NGrid=      1180
 Symmetry reduced   590 angular points to   590 for atom    2.
 Pruned (  99, 590) grid will be used in numerical quadrature.
 IPart=  9 Atom number   2 atomic number  6 has       23114 grid points.
 IPart=  9 Atom   2 batch    8 overlaps    7 atoms,    83 shells and     7 DB shells.   NGrid=      1180
 Symmetry reduced   590 angular points to   590 for atom    2.
 Pruned (  99, 590) grid will be used in numerical quadrature.
 IPart=  7 Atom number   2 atomic number  6 has       23114 grid points.
 Pruned (  99, 590) grid will be used in numerical quadrature.
 IPart=  7 Atom   2 batch    9 overlaps    7 atoms,    83 shells and     7 DB shells.   NGrid=      1180
 IPart= 12 Atom number   2 atomic number  6 has       23114 grid points.
 Symmetry reduced   590 angular points to   590 for atom    2.
 IPart= 12 Atom   2 batch   10 overlaps    7 atoms,    83 shells and     7 DB shells.   NGrid=      1180
 Symmetry reduced   590 angular points to   590 for atom    2.
 Pruned (  99, 590) grid will be used in numerical quadrature.
 IPart= 15 Atom number   2 atomic number  6 has       23114 grid points.
 IPart= 15 Atom   2 batch   11 overlaps    7 atoms,    82 shells and     7 DB shells.   NGrid=      1180
 Symmetry reduced   590 angular points to   590 for atom    2.
 Pruned (  99, 590) grid will be used in numerical quadrature.
 IPart=  1 Atom number   2 atomic number  6 has       23114 grid points.
 IPart=  1 Atom   2 batch   12 overlaps    7 atoms,    82 shells and     7 DB shells.   NGrid=       590
 Symmetry reduced   590 angular points to   590 for atom    2.
 Pruned (  99, 590) grid will be used in numerical quadrature.
 IPart= 13 Atom number   2 atomic number  6 has       23114 grid points.
 IPart= 13 Atom   2 batch   13 overlaps    7 atoms,    82 shells and     7 DB shells.   NGrid=       604
 Symmetry reduced   302 angular points to   302 for atom    2.
 IPart=  1 Atom   2 batch   14 overlaps    7 atoms,    80 shells and     7 DB shells.   NGrid=       604
 Symmetry reduced   302 angular points to   302 for atom    2.
 IPart= 13 Atom   2 batch   15 overlaps    7 atoms,    76 shells and     7 DB shells.   NGrid=       604
 IPart= 10 Atom   2 batch   16 overlaps    7 atoms,    67 shells and     7 DB shells.   NGrid=       604
 Symmetry reduced   302 angular points to   302 for atom    2.
 IPart=  3 Atom   2 batch   17 overlaps    7 atoms,    56 shells and     7 DB shells.   NGrid=       604
 Symmetry reduced   302 angular points to   302 for atom    2.
 Pruned (  99, 590) grid will be used in numerical quadrature.
 IPart=  0 Atom number   2 atomic number  6 has       23114 grid points.
 IPart=  0 Atom   2 batch   18 overlaps    7 atoms,    43 shells and     7 DB shells.   NGrid=       604
 Symmetry reduced   302 angular points to   302 for atom    2.
 Pruned (  99, 590) grid will be used in numerical quadrature.
 IPart=  5 Atom number   2 atomic number  6 has       23114 grid points.
 IPart=  5 Atom   2 batch   19 overlaps    7 atoms,    31 shells and     7 DB shells.   NGrid=       604
 Symmetry reduced   302 angular points to   302 for atom    2.
 IPart=  0 Atom   2 batch   20 overlaps    7 atoms,    20 shells and     4 DB shells.   NGrid=       604
 IPart=  5 Atom   2 batch   21 overlaps    7 atoms,     9 shells and     0 DB shells.   NGrid=       604
 IPart=  0 Atom   2 batch   22 overlaps    7 atoms,     3 shells and     0 DB shells.   NGrid=       604
 Pruned (  99, 590) grid will be used in numerical quadrature.
 IPart=  5 Atom number   3 atomic number  8 has       23718 grid points.
 IPart=  5 Atom   3 batch    1 overlaps    7 atoms,    79 shells and     7 DB shells.   NGrid=      2408
 Symmetry reduced    86 angular points to    86 for atom    3.
 Pruned (  99, 590) grid will be used in numerical quadrature.
 IPart=  0 Atom number   3 atomic number  8 has       23718 grid points.
 IPart=  0 Atom   3 batch    2 overlaps    7 atoms,    80 shells and     7 DB shells.   NGrid=      2522
 Symmetry reduced   194 angular points to   194 for atom    3.
 Pruned (  99, 590) grid will be used in numerical quadrature.
 IPart=  3 Atom number   3 atomic number  8 has       23718 grid points.
 IPart=  3 Atom   3 batch    3 overlaps    7 atoms,    81 shells and     7 DB shells.   NGrid=      2114
 Symmetry reduced   302 angular points to   302 for atom    3.
 Pruned (  99, 590) grid will be used in numerical quadrature.
 IPart= 15 Atom number   3 atomic number  8 has       23718 grid points.
 IPart= 15 Atom   3 batch    4 overlaps    7 atoms,    81 shells and     7 DB shells.   NGrid=      1180
 Symmetry reduced   590 angular points to   590 for atom    3.
 Pruned (  99, 590) grid will be used in numerical quadrature.
 IPart=  6 Atom number   3 atomic number  8 has       23718 grid points.
 IPart=  6 Atom   3 batch    5 overlaps    7 atoms,    82 shells and     7 DB shells.   NGrid=      1180
 Symmetry reduced   590 angular points to   590 for atom    3.
 Pruned (  99, 590) grid will be used in numerical quadrature.
 IPart= 10 Atom number   3 atomic number  8 has       23718 grid points.
 IPart= 10 Atom   3 batch    6 overlaps    7 atoms,    82 shells and     7 DB shells.   NGrid=      1180
 Symmetry reduced   590 angular points to   590 for atom    3.
 Pruned (  99, 590) grid will be used in numerical quadrature.
 IPart=  4 Atom number   2 atomic number  6 has       23114 grid points.
 Pruned (  99, 590) grid will be used in numerical quadrature.
 IPart=  4 Atom number   3 atomic number  8 has       23718 grid points.
 IPart=  4 Atom   3 batch    7 overlaps    7 atoms,    82 shells and     7 DB shells.   NGrid=      1180
 Symmetry reduced   590 angular points to   590 for atom    3.
 Pruned (  99, 590) grid will be used in numerical quadrature.
 IPart= 13 Atom number   3 atomic number  8 has       23718 grid points.
 IPart= 13 Atom   3 batch    8 overlaps    7 atoms,    83 shells and     7 DB shells.   NGrid=      1180
 Symmetry reduced   590 angular points to   590 for atom    3.
 Pruned (  99, 590) grid will be used in numerical quadrature.
 IPart=  1 Atom number   3 atomic number  8 has       23718 grid points.
 IPart=  1 Atom   3 batch    9 overlaps    7 atoms,    83 shells and     7 DB shells.   NGrid=      1180
 Symmetry reduced   590 angular points to   590 for atom    3.
 Pruned (  99, 590) grid will be used in numerical quadrature.
 IPart= 12 Atom number   3 atomic number  8 has       23718 grid points.
 IPart= 12 Atom   3 batch   10 overlaps    7 atoms,    83 shells and     7 DB shells.   NGrid=      1180
 Symmetry reduced   590 angular points to   590 for atom    3.
 Pruned (  99, 590) grid will be used in numerical quadrature.
 IPart= 14 Atom number   3 atomic number  8 has       23718 grid points.
 IPart= 14 Atom   3 batch   11 overlaps    7 atoms,    83 shells and     7 DB shells.   NGrid=      1180
 Symmetry reduced   590 angular points to   590 for atom    3.
 Pruned (  99, 590) grid will be used in numerical quadrature.
 IPart=  9 Atom number   3 atomic number  8 has       23718 grid points.
 IPart=  9 Atom   3 batch   12 overlaps    7 atoms,    82 shells and     7 DB shells.   NGrid=       590
 Symmetry reduced   590 angular points to   590 for atom    3.
 Pruned (  99, 590) grid will be used in numerical quadrature.
 IPart=  7 Atom number   3 atomic number  8 has       23718 grid points.
 IPart=  7 Atom   3 batch   13 overlaps    7 atoms,    82 shells and     7 DB shells.   NGrid=       604
 Symmetry reduced   302 angular points to   302 for atom    3.
 Pruned (  99, 590) grid will be used in numerical quadrature.
 IPart=  8 Atom number   3 atomic number  8 has       23718 grid points.
 IPart=  8 Atom   3 batch   14 overlaps    7 atoms,    82 shells and     7 DB shells.   NGrid=       604
 Symmetry reduced   302 angular points to   302 for atom    3.
 Pruned (  99, 590) grid will be used in numerical quadrature.
 IPart=  2 Atom number   3 atomic number  8 has       23718 grid points.
 IPart=  2 Atom   3 batch   15 overlaps    7 atoms,    79 shells and     7 DB shells.   NGrid=       604
 Symmetry reduced   302 angular points to   302 for atom    3.
 IPart=  9 Atom   3 batch   16 overlaps    7 atoms,    77 shells and     7 DB shells.   NGrid=       604
 Symmetry reduced   302 angular points to   302 for atom    3.
 IPart=  7 Atom   3 batch   17 overlaps    7 atoms,    76 shells and     7 DB shells.   NGrid=       604
 Pruned (  99, 590) grid will be used in numerical quadrature.
 IPart= 11 Atom number   3 atomic number  8 has       23718 grid points.
 IPart= 11 Atom   3 batch   18 overlaps    7 atoms,    68 shells and     7 DB shells.   NGrid=       604
 Symmetry reduced   302 angular points to   302 for atom    3.
 IPart= 15 Atom   3 batch   19 overlaps    7 atoms,    57 shells and     7 DB shells.   NGrid=       604
 Symmetry reduced   302 angular points to   302 for atom    3.
 IPart=  6 Atom   3 batch   20 overlaps    7 atoms,    40 shells and     6 DB shells.   NGrid=       604
 Symmetry reduced   302 angular points to   302 for atom    3.
 IPart= 10 Atom   3 batch   21 overlaps    7 atoms,    24 shells and     5 DB shells.   NGrid=       604
 Symmetry reduced   302 angular points to   302 for atom    3.
 IPart=  7 Atom   3 batch   22 overlaps    7 atoms,    10 shells and     0 DB shells.   NGrid=       604
 IPart=  4 Atom   3 batch   23 overlaps    7 atoms,     4 shells and     0 DB shells.   NGrid=       604
 Symmetry reduced   302 angular points to   302 for atom    3.
 Pruned (  99, 590) grid will be used in numerical quadrature.
 IPart=  6 Atom number   4 atomic number  8 has       23718 grid points.
 IPart=  6 Atom   4 batch    1 overlaps    7 atoms,    79 shells and     7 DB shells.   NGrid=      2408
 Symmetry reduced    86 angular points to    86 for atom    4.
 Pruned (  99, 590) grid will be used in numerical quadrature.
 IPart= 13 Atom number   4 atomic number  8 has       23718 grid points.
 IPart= 13 Atom   4 batch    2 overlaps    7 atoms,    80 shells and     7 DB shells.   NGrid=      2522
 Symmetry reduced   194 angular points to   194 for atom    4.
 Pruned (  99, 590) grid will be used in numerical quadrature.
 IPart=  4 Atom number   4 atomic number  8 has       23718 grid points.
 IPart=  4 Atom   4 batch    3 overlaps    7 atoms,    81 shells and     7 DB shells.   NGrid=      2114
 Pruned (  99, 590) grid will be used in numerical quadrature.
 Symmetry reduced   302 angular points to   302 for atom    4.
 IPart= 10 Atom number   4 atomic number  8 has       23718 grid points.
 IPart= 10 Atom   4 batch    4 overlaps    7 atoms,    81 shells and     7 DB shells.   NGrid=      1180
 Symmetry reduced   590 angular points to   590 for atom    4.
 Pruned (  99, 590) grid will be used in numerical quadrature.
 IPart=  7 Atom number   4 atomic number  8 has       23718 grid points.
 IPart=  7 Atom   4 batch    5 overlaps    7 atoms,    82 shells and     7 DB shells.   NGrid=      1180
 Symmetry reduced   590 angular points to   590 for atom    4.
 Pruned (  99, 590) grid will be used in numerical quadrature.
 IPart= 11 Atom number   4 atomic number  8 has       23718 grid points.
 IPart= 11 Atom   4 batch    6 overlaps    7 atoms,    82 shells and     7 DB shells.   NGrid=      1180
 Symmetry reduced   590 angular points to   590 for atom    4.
 Pruned (  99, 590) grid will be used in numerical quadrature.
 IPart=  1 Atom number   4 atomic number  8 has       23718 grid points.
 IPart=  1 Atom   4 batch    7 overlaps    7 atoms,    82 shells and     7 DB shells.   NGrid=      1180
 Symmetry reduced   590 angular points to   590 for atom    4.
 Pruned (  99, 590) grid will be used in numerical quadrature.
 Pruned (  99, 590) grid will be used in numerical quadrature.
 IPart=  8 Atom number   4 atomic number  8 has       23718 grid points.
 IPart=  9 Atom number   4 atomic number  8 has       23718 grid points.
 IPart=  8 Atom   4 batch    8 overlaps    7 atoms,    83 shells and     7 DB shells.   NGrid=      1180
 IPart=  9 Atom   4 batch    9 overlaps    7 atoms,    83 shells and     7 DB shells.   NGrid=      1180
 Symmetry reduced   590 angular points to   590 for atom    4.
 Symmetry reduced   590 angular points to   590 for atom    4.
 Pruned (  99, 590) grid will be used in numerical quadrature.
 IPart= 14 Atom number   4 atomic number  8 has       23718 grid points.
 Pruned (  99, 590) grid will be used in numerical quadrature.
 IPart= 14 Atom   4 batch   10 overlaps    7 atoms,    83 shells and     7 DB shells.   NGrid=      1180
 IPart=  2 Atom number   4 atomic number  8 has       23718 grid points.
 IPart=  2 Atom   4 batch   11 overlaps    7 atoms,    83 shells and     7 DB shells.   NGrid=      1180
 Symmetry reduced   590 angular points to   590 for atom    4.
 Symmetry reduced   590 angular points to   590 for atom    4.
 Pruned (  99, 590) grid will be used in numerical quadrature.
 IPart= 15 Atom number   4 atomic number  8 has       23718 grid points.
 IPart= 15 Atom   4 batch   12 overlaps    7 atoms,    82 shells and     7 DB shells.   NGrid=       590
 Symmetry reduced   590 angular points to   590 for atom    4.
 Pruned (  99, 590) grid will be used in numerical quadrature.
 IPart= 12 Atom number   4 atomic number  8 has       23718 grid points.
 IPart= 12 Atom   4 batch   13 overlaps    7 atoms,    82 shells and     7 DB shells.   NGrid=       604
 Symmetry reduced   302 angular points to   302 for atom    4.
 Pruned (  99, 590) grid will be used in numerical quadrature.
 IPart=  5 Atom number   4 atomic number  8 has       23718 grid points.
 IPart=  5 Atom   4 batch   14 overlaps    7 atoms,    82 shells and     7 DB shells.   NGrid=       604
 Symmetry reduced   302 angular points to   302 for atom    4.
 Pruned (  99, 590) grid will be used in numerical quadrature.
 IPart=  3 Atom number   4 atomic number  8 has       23718 grid points.
 IPart=  3 Atom   4 batch   15 overlaps    7 atoms,    79 shells and     7 DB shells.   NGrid=       604
 Symmetry reduced   302 angular points to   302 for atom    4.
 IPart= 15 Atom   4 batch   16 overlaps    7 atoms,    77 shells and     7 DB shells.   NGrid=       604
 Symmetry reduced   302 angular points to   302 for atom    4.
 IPart= 12 Atom   4 batch   17 overlaps    7 atoms,    76 shells and     7 DB shells.   NGrid=       604
 Pruned (  99, 590) grid will be used in numerical quadrature.
 IPart=  0 Atom number   4 atomic number  8 has       23718 grid points.
 IPart=  0 Atom   4 batch   18 overlaps    7 atoms,    68 shells and     7 DB shells.   NGrid=       604
 Symmetry reduced   302 angular points to   302 for atom    4.
 IPart= 10 Atom   4 batch   19 overlaps    7 atoms,    57 shells and     7 DB shells.   NGrid=       604
 Symmetry reduced   302 angular points to   302 for atom    4.
 IPart= 12 Atom   4 batch   20 overlaps    7 atoms,    40 shells and     6 DB shells.   NGrid=       604
 IPart=  0 Atom   4 batch   21 overlaps    7 atoms,    24 shells and     5 DB shells.   NGrid=       604
 IPart=  7 Atom   4 batch   22 overlaps    7 atoms,    10 shells and     0 DB shells.   NGrid=       604
 Symmetry reduced   302 angular points to   302 for atom    4.
 IPart=  3 Atom   4 batch   23 overlaps    7 atoms,     4 shells and     0 DB shells.   NGrid=       604
 Pruned (  99, 590) grid will be used in numerical quadrature.
 IPart= 11 Atom number   5 atomic number  1 has       23164 grid points.
 IPart= 11 Atom   5 batch    1 overlaps    7 atoms,    74 shells and     7 DB shells.   NGrid=      2838
 Symmetry reduced    86 angular points to    86 for atom    5.
 Pruned (  99, 590) grid will be used in numerical quadrature.
 IPart= 15 Atom number   5 atomic number  1 has       23164 grid points.
 IPart= 15 Atom   5 batch    2 overlaps    7 atoms,    77 shells and     7 DB shells.   NGrid=      1552
 Symmetry reduced   194 angular points to   194 for atom    5.
 Pruned (  99, 590) grid will be used in numerical quadrature.
 IPart=  5 Atom number   5 atomic number  1 has       23164 grid points.
 Pruned (  99, 590) grid will be used in numerical quadrature.
 IPart=  5 Atom   5 batch    3 overlaps    7 atoms,    78 shells and     7 DB shells.   NGrid=      2416
 IPart=  1 Atom number   5 atomic number  1 has       23164 grid points.
 Symmetry reduced   302 angular points to   302 for atom    5.
 IPart=  1 Atom   5 batch    4 overlaps    7 atoms,    78 shells and     7 DB shells.   NGrid=      1180
 Pruned (  99, 590) grid will be used in numerical quadrature.
 Symmetry reduced   590 angular points to   590 for atom    5.
 IPart=  3 Atom number   5 atomic number  1 has       23164 grid points.
 IPart=  3 Atom   5 batch    5 overlaps    7 atoms,    79 shells and     7 DB shells.   NGrid=      1180
 Symmetry reduced   590 angular points to   590 for atom    5.
 Pruned (  99, 590) grid will be used in numerical quadrature.
 Pruned (  99, 590) grid will be used in numerical quadrature.
 IPart=  8 Atom number   5 atomic number  1 has       23164 grid points.
 IPart=  0 Atom number   5 atomic number  1 has       23164 grid points.
 IPart=  8 Atom   5 batch    6 overlaps    7 atoms,    79 shells and     7 DB shells.   NGrid=      1180
 IPart=  0 Atom   5 batch    7 overlaps    7 atoms,    81 shells and     7 DB shells.   NGrid=      1180
 Symmetry reduced   590 angular points to   590 for atom    5.
 Symmetry reduced   590 angular points to   590 for atom    5.
 Pruned (  99, 590) grid will be used in numerical quadrature.
 IPart= 12 Atom number   5 atomic number  1 has       23164 grid points.
 IPart= 12 Atom   5 batch    8 overlaps    7 atoms,    81 shells and     7 DB shells.   NGrid=      1180
 Pruned (  99, 590) grid will be used in numerical quadrature.
 Symmetry reduced   590 angular points to   590 for atom    5.
 IPart=  7 Atom number   5 atomic number  1 has       23164 grid points.
 IPart=  7 Atom   5 batch    9 overlaps    7 atoms,    82 shells and     7 DB shells.   NGrid=      1180
 Symmetry reduced   590 angular points to   590 for atom    5.
 Pruned (  99, 590) grid will be used in numerical quadrature.
 IPart=  9 Atom number   5 atomic number  1 has       23164 grid points.
 IPart=  9 Atom   5 batch   10 overlaps    7 atoms,    82 shells and     7 DB shells.   NGrid=      1180
 Pruned (  99, 590) grid will be used in numerical quadrature.
 Symmetry reduced   590 angular points to   590 for atom    5.
 IPart=  2 Atom number   5 atomic number  1 has       23164 grid points.
 IPart=  2 Atom   5 batch   11 overlaps    7 atoms,    82 shells and     7 DB shells.   NGrid=      1180
 Symmetry reduced   590 angular points to   590 for atom    5.
 Pruned (  99, 590) grid will be used in numerical quadrature.
 IPart= 14 Atom number   5 atomic number  1 has       23164 grid points.
 IPart= 14 Atom   5 batch   12 overlaps    7 atoms,    83 shells and     7 DB shells.   NGrid=      1180
 Symmetry reduced   590 angular points to   590 for atom    5.
 Pruned (  99, 590) grid will be used in numerical quadrature.
 IPart= 10 Atom number   5 atomic number  1 has       23164 grid points.
 IPart= 10 Atom   5 batch   13 overlaps    7 atoms,    83 shells and     7 DB shells.   NGrid=       604
 Symmetry reduced   302 angular points to   302 for atom    5.
 Pruned (  99, 590) grid will be used in numerical quadrature.
 IPart=  6 Atom number   5 atomic number  1 has       23164 grid points.
 IPart=  6 Atom   5 batch   14 overlaps    7 atoms,    83 shells and     7 DB shells.   NGrid=       604
 Symmetry reduced   302 angular points to   302 for atom    5.
 Pruned (  99, 590) grid will be used in numerical quadrature.
 IPart=  4 Atom number   5 atomic number  1 has       23164 grid points.
 IPart=  4 Atom   5 batch   15 overlaps    7 atoms,    79 shells and     7 DB shells.   NGrid=       604
 Symmetry reduced   302 angular points to   302 for atom    5.
 IPart= 10 Atom   5 batch   16 overlaps    7 atoms,    76 shells and     7 DB shells.   NGrid=       604
 Pruned (  99, 590) grid will be used in numerical quadrature.
 IPart= 13 Atom number   5 atomic number  1 has       23164 grid points.
 IPart= 13 Atom   5 batch   17 overlaps    7 atoms,    63 shells and     7 DB shells.   NGrid=       604
 Symmetry reduced   302 angular points to   302 for atom    5.
 IPart=  1 Atom   5 batch   18 overlaps    7 atoms,    48 shells and     7 DB shells.   NGrid=       604
 Symmetry reduced   302 angular points to   302 for atom    5.
 IPart=  3 Atom   5 batch   19 overlaps    7 atoms,    32 shells and     7 DB shells.   NGrid=       604
 Symmetry reduced   302 angular points to   302 for atom    5.
 IPart=  8 Atom   5 batch   20 overlaps    7 atoms,    18 shells and     1 DB shells.   NGrid=       604
 IPart= 10 Atom   5 batch   21 overlaps    7 atoms,     9 shells and     0 DB shells.   NGrid=       604
 Symmetry reduced   302 angular points to   302 for atom    5.
 IPart= 14 Atom   5 batch   22 overlaps    7 atoms,     2 shells and     0 DB shells.   NGrid=       302
 Symmetry reduced   302 angular points to   302 for atom    5.
 Pruned (  99, 590) grid will be used in numerical quadrature.
 Pruned (  99, 590) grid will be used in numerical quadrature.
 IPart=  3 Atom number   6 atomic number  1 has       23164 grid points.
 IPart=  4 Atom number   6 atomic number  1 has       23164 grid points.
 IPart=  3 Atom   6 batch    1 overlaps    7 atoms,    74 shells and     7 DB shells.   NGrid=      2838
 IPart=  4 Atom   6 batch    2 overlaps    7 atoms,    74 shells and     7 DB shells.   NGrid=      1552
 Symmetry reduced    86 angular points to    86 for atom    6.
 Symmetry reduced   194 angular points to   194 for atom    6.
 Pruned (  99, 590) grid will be used in numerical quadrature.
 IPart=  7 Atom number   6 atomic number  1 has       23164 grid points.
 IPart=  7 Atom   6 batch    3 overlaps    7 atoms,    79 shells and     7 DB shells.   NGrid=      2416
 Symmetry reduced   302 angular points to   302 for atom    6.
 Pruned (  99, 590) grid will be used in numerical quadrature.
 IPart= 13 Atom number   6 atomic number  1 has       23164 grid points.
 Pruned (  99, 590) grid will be used in numerical quadrature.
 IPart= 13 Atom   6 batch    4 overlaps    7 atoms,    81 shells and     7 DB shells.   NGrid=      1180
 IPart=  0 Atom number   6 atomic number  1 has       23164 grid points.
 Symmetry reduced   590 angular points to   590 for atom    6.
 IPart=  0 Atom   6 batch    5 overlaps    7 atoms,    81 shells and     7 DB shells.   NGrid=      1180
 Pruned (  99, 590) grid will be used in numerical quadrature.
 Symmetry reduced   590 angular points to   590 for atom    6.
 IPart= 14 Atom number   6 atomic number  1 has       23164 grid points.
 IPart= 14 Atom   6 batch    6 overlaps    7 atoms,    81 shells and     7 DB shells.   NGrid=      1180
 Symmetry reduced   590 angular points to   590 for atom    6.
 Pruned (  99, 590) grid will be used in numerical quadrature.
 IPart=  9 Atom number   6 atomic number  1 has       23164 grid points.
 IPart=  9 Atom   6 batch    7 overlaps    7 atoms,    81 shells and     7 DB shells.   NGrid=      1180
 Symmetry reduced   590 angular points to   590 for atom    6.
 Pruned (  99, 590) grid will be used in numerical quadrature.
 IPart=  8 Atom number   6 atomic number  1 has       23164 grid points.
 IPart=  8 Atom   6 batch    8 overlaps    7 atoms,    81 shells and     7 DB shells.   NGrid=      1180
 Symmetry reduced   590 angular points to   590 for atom    6.
 Pruned (  99, 590) grid will be used in numerical quadrature.
 IPart=  2 Atom number   6 atomic number  1 has       23164 grid points.
 IPart=  2 Atom   6 batch    9 overlaps    7 atoms,    81 shells and     7 DB shells.   NGrid=      1180
 Symmetry reduced   590 angular points to   590 for atom    6.
 Pruned (  99, 590) grid will be used in numerical quadrature.
 Pruned (  99, 590) grid will be used in numerical quadrature.
 IPart=  1 Atom number   6 atomic number  1 has       23164 grid points.
 IPart= 10 Atom number   6 atomic number  1 has       23164 grid points.
 IPart=  1 Atom   6 batch   10 overlaps    7 atoms,    83 shells and     7 DB shells.   NGrid=      1180
 IPart= 10 Atom   6 batch   11 overlaps    7 atoms,    83 shells and     7 DB shells.   NGrid=      1180
 Symmetry reduced   590 angular points to   590 for atom    6.
 Symmetry reduced   590 angular points to   590 for atom    6.
 Pruned (  99, 590) grid will be used in numerical quadrature.
 IPart=  6 Atom number   6 atomic number  1 has       23164 grid points.
 IPart=  6 Atom   6 batch   12 overlaps    7 atoms,    83 shells and     7 DB shells.   NGrid=      1180
 Symmetry reduced   590 angular points to   590 for atom    6.
 Pruned (  99, 590) grid will be used in numerical quadrature.
 IPart= 12 Atom number   6 atomic number  1 has       23164 grid points.
 IPart= 12 Atom   6 batch   13 overlaps    7 atoms,    83 shells and     7 DB shells.   NGrid=       604
 Symmetry reduced   302 angular points to   302 for atom    6.
 Pruned (  99, 590) grid will be used in numerical quadrature.
 IPart= 15 Atom number   6 atomic number  1 has       23164 grid points.
 IPart= 15 Atom   6 batch   14 overlaps    7 atoms,    83 shells and     7 DB shells.   NGrid=       604
 Symmetry reduced   302 angular points to   302 for atom    6.
 IPart= 15 Atom   6 batch   15 overlaps    7 atoms,    79 shells and     7 DB shells.   NGrid=       604
 IPart= 12 Atom   6 batch   16 overlaps    7 atoms,    75 shells and     7 DB shells.   NGrid=       604
 Pruned (  99, 590) grid will be used in numerical quadrature.
 IPart=  5 Atom number   6 atomic number  1 has       23164 grid points.
 IPart=  5 Atom   6 batch   17 overlaps    7 atoms,    61 shells and     7 DB shells.   NGrid=       604
 Symmetry reduced   302 angular points to   302 for atom    6.
 IPart= 12 Atom   6 batch   18 overlaps    7 atoms,    50 shells and     7 DB shells.   NGrid=       604
 Pruned (  99, 590) grid will be used in numerical quadrature.
 IPart= 11 Atom number   6 atomic number  1 has       23164 grid points.
 IPart= 11 Atom   6 batch   19 overlaps    7 atoms,    32 shells and     7 DB shells.   NGrid=       604
 Symmetry reduced   302 angular points to   302 for atom    6.
 IPart= 13 Atom   6 batch   20 overlaps    7 atoms,    18 shells and     1 DB shells.   NGrid=       604
 Symmetry reduced   302 angular points to   302 for atom    6.
 IPart=  6 Atom   6 batch   21 overlaps    7 atoms,     9 shells and     0 DB shells.   NGrid=       604
[...]
 2566 Fit      -0.154194
 2567 Fit      -0.155969
 2568 Fit      -0.158193
 2569 Fit      -0.160861
 2570 Fit      -0.163994
 2571 Fit      -0.167662
 2572 Fit      -0.172024
 2573 Fit      -0.177384
 2574 Fit      -0.184264
 2575 Fit      -0.152193
 2576 Fit      -0.152233
 2577 Fit      -0.152046
 2578 Fit      -0.151756
 2579 Fit      -0.151487
 2580 Fit      -0.151363
 2581 Fit      -0.151493
 2582 Fit      -0.151968
 2583 Fit      -0.152848
 2584 Fit      -0.154169
 2585 Fit      -0.155941
 2586 Fit      -0.158160
 2587 Fit      -0.160823
 2588 Fit      -0.163950
 2589 Fit      -0.167612
 2590 Fit      -0.171967
 2591 Fit      -0.177319
 2592 Fit      -0.184188
 2593 Fit      -0.151857
 2594 Fit      -0.152008
 2595 Fit      -0.151894
 2596 Fit      -0.151671
 2597 Fit      -0.151482
 2598 Fit      -0.151457
 2599 Fit      -0.151709
 2600 Fit      -0.152324
 2601 Fit      -0.153358
 2602 Fit      -0.154842
 2603 Fit      -0.156780
 2604 Fit      -0.159168
 2605 Fit      -0.162011
 2606 Fit      -0.165347
 2607 Fit      -0.169278
 2608 Fit      -0.174022
 2609 Fit      -0.179964
 2610 Fit      -0.187740
 2611 Fit      -0.151656
 2612 Fit      -0.151866
 2613 Fit      -0.151824
 2614 Fit      -0.151693
 2615 Fit      -0.151614
 2616 Fit      -0.151718
 2617 Fit      -0.152109
 2618 Fit      -0.152868
 2619 Fit      -0.154044
 2620 Fit      -0.155658
 2621 Fit      -0.157715
 2622 Fit      -0.160212
 2623 Fit      -0.163164
 2624 Fit      -0.166628
 2625 Fit      -0.170738
 2626 Fit      -0.175747
 2627 Fit      -0.182081
 2628 Fit      -0.151252
 2629 Fit      -0.151730
 2630 Fit      -0.151874
 2631 Fit      -0.151864
 2632 Fit      -0.151861
 2633 Fit      -0.152008
 2634 Fit      -0.152430
 2635 Fit      -0.153221
 2636 Fit      -0.154438
 2637 Fit      -0.156110
 2638 Fit      -0.158243
 2639 Fit      -0.160838
 2640 Fit      -0.163919
 2641 Fit      -0.167561
 2642 Fit      -0.171929
 2643 Fit      -0.177316
 2644 Fit      -0.184171
 2645 Fit      -0.151701
 2646 Fit      -0.151975
 2647 Fit      -0.152088
 2648 Fit      -0.152204
 2649 Fit      -0.152482
 2650 Fit      -0.153060
 2651 Fit      -0.154042
 2652 Fit      -0.155488
 2653 Fit      -0.157424
 2654 Fit      -0.159855
 2655 Fit      -0.162794
 2656 Fit      -0.166295
 2657 Fit      -0.170492
 2658 Fit      -0.175620
 2659 Fit      -0.182010
 2660 Fit      -0.151877
 2661 Fit      -0.152202
 2662 Fit      -0.152421
 2663 Fit      -0.152664
 2664 Fit      -0.153091
 2665 Fit      -0.153847
 2666 Fit      -0.155038
 2667 Fit      -0.156724
 2668 Fit      -0.158924
 2669 Fit      -0.161644
 2670 Fit      -0.164911
 2671 Fit      -0.168803
 2672 Fit      -0.173456
 2673 Fit      -0.152411
 2674 Fit      -0.152676
 2675 Fit      -0.152969
 2676 Fit      -0.153383
 2677 Fit      -0.154078
 2678 Fit      -0.155201
 2679 Fit      -0.156849
 2680 Fit      -0.159056
 2681 Fit      -0.161820
 2682 Fit      -0.165138
 2683 Fit      -0.169017
 2684 Fit      -0.173404
 2685 Fit      -0.153589
 2686 Fit      -0.153319
 2687 Fit      -0.153470
 2688 Fit      -0.153877
 2689 Fit      -0.154620
 2690 Fit      -0.155877
 2691 Fit      -0.157773
 2692 Fit      -0.160326
 2693 Fit      -0.163456
 2694 Fit      -0.166980
 2695 Fit      -0.154700
 2696 Fit      -0.154620
 2697 Fit      -0.155247
 2698 Fit      -0.156629
 2699 Fit      -0.158866
 2700 Fit      -0.161776
 2701 Fit      -0.164727
 2702 Fit      -0.156255
 2703 Fit      -0.157498
 2704 Fit      -0.160136
 2705 Fit      -0.158565
 2706 Fit      -0.158488
 2707 Fit      -0.156830
 2708 Fit      -0.160210
 2709 Fit      -0.157565
 2710 Fit      -0.156237
 2711 Fit      -0.164903
 2712 Fit      -0.161971
 2713 Fit      -0.159040
 2714 Fit      -0.156781
 2715 Fit      -0.155398
 2716 Fit      -0.154754
 2717 Fit      -0.154650
 2718 Fit      -0.167292
 2719 Fit      -0.163743
 2720 Fit      -0.160575
 2721 Fit      -0.157986
 2722 Fit      -0.156072
 2723 Fit      -0.154833
 2724 Fit      -0.154153
 2725 Fit      -0.153831
 2726 Fit      -0.153672
 2727 Fit      -0.153597
 2728 Fit      -0.173834
 2729 Fit      -0.169410
 2730 Fit      -0.165486
 2731 Fit      -0.162121
 2732 Fit      -0.159313
 2733 Fit      -0.157072
 2734 Fit      -0.155409
 2735 Fit      -0.154303
 2736 Fit      -0.153678
 2737 Fit      -0.153397
 2738 Fit      -0.153300
 2739 Fit      -0.153246
 2740 Fit      -0.153131
 2741 Fit      -0.179520
 2742 Fit      -0.173913
 2743 Fit      -0.169204
 2744 Fit      -0.165261
 2745 Fit      -0.161947
 2746 Fit      -0.159183
 2747 Fit      -0.156947
 2748 Fit      -0.155240
 2749 Fit      -0.154051
 2750 Fit      -0.153337
 2751 Fit      -0.153009
 2752 Fit      -0.152946
 2753 Fit      -0.153013
 2754 Fit      -0.153101
 2755 Fit      -0.153138
 2756 Fit      -0.182537
 2757 Fit      -0.176073
 2758 Fit      -0.170886
 2759 Fit      -0.166639
 2760 Fit      -0.163093
 2761 Fit      -0.160112
 2762 Fit      -0.157645
 2763 Fit      -0.155680
 2764 Fit      -0.154219
 2765 Fit      -0.153246
 2766 Fit      -0.152714
 2767 Fit      -0.152537
 2768 Fit      -0.152604
 2769 Fit      -0.152795
 2770 Fit      -0.153013
 2771 Fit      -0.153209
 2772 Fit      -0.184645
 2773 Fit      -0.177720
 2774 Fit      -0.172280
 2775 Fit      -0.167868
 2776 Fit      -0.164188
 2777 Fit      -0.161072
 2778 Fit      -0.158444
 2779 Fit      -0.156283
 2780 Fit      -0.154591
 2781 Fit      -0.153366
 2782 Fit      -0.152588
 2783 Fit      -0.152208
 2784 Fit      -0.152150
 2785 Fit      -0.152312
 2786 Fit      -0.152589
 2787 Fit      -0.152889
 2788 Fit      -0.153171
 2789 Fit      -0.153472
 2790 Fit      -0.182424
 2791 Fit      -0.176043
 2792 Fit      -0.170997
 2793 Fit      -0.166856
 2794 Fit      -0.163364
 2795 Fit      -0.160386
 2796 Fit      -0.157865
 2797 Fit      -0.155788
 2798 Fit      -0.154158
 2799 Fit      -0.152975
 2800 Fit      -0.152223
 2801 Fit      -0.151860
 2802 Fit      -0.151815
 2803 Fit      -0.152000
 2804 Fit      -0.152312
 2805 Fit      -0.152657
 2806 Fit      -0.152970
 2807 Fit      -0.153256
 2808 Fit      -0.187984
 2809 Fit      -0.180169
 2810 Fit      -0.174199
 2811 Fit      -0.169434
 2812 Fit      -0.165484
 2813 Fit      -0.162131
 2814 Fit      -0.159272
 2815 Fit      -0.156869
 2816 Fit      -0.154918
 2817 Fit      -0.153427
 2818 Fit      -0.152390
 2819 Fit      -0.151782
 2820 Fit      -0.151553
 2821 Fit      -0.151622
 2822 Fit      -0.151891
 2823 Fit      -0.152248
 2824 Fit      -0.152593
 2825 Fit      -0.152858
 2826 Fit      -0.153043
 2827 Fit      -0.184267
 2828 Fit      -0.177386
 2829 Fit      -0.172026
 2830 Fit      -0.167663
 2831 Fit      -0.163996
 2832 Fit      -0.160863
 2833 Fit      -0.158194
 2834 Fit      -0.155970
 2835 Fit      -0.154194
 2836 Fit      -0.152871
 2837 Fit      -0.151991
 2838 Fit      -0.151520
 2839 Fit      -0.151398
 2840 Fit      -0.151540
 2841 Fit      -0.151840
 2842 Fit      -0.152183
 2843 Fit      -0.152460
 2844 Fit      -0.152587
 2845 Fit      -0.184191
 2846 Fit      -0.177322
 2847 Fit      -0.171969
 2848 Fit      -0.167613
 2849 Fit      -0.163952
 2850 Fit      -0.160824
 2851 Fit      -0.158161
 2852 Fit      -0.155942
 2853 Fit      -0.154170
 2854 Fit      -0.152849
 2855 Fit      -0.151968
 2856 Fit      -0.151494
 2857 Fit      -0.151363
 2858 Fit      -0.151487
 2859 Fit      -0.151756
 2860 Fit      -0.152047
 2861 Fit      -0.152234
 2862 Fit      -0.152195
 2863 Fit      -0.187743
 2864 Fit      -0.179966
 2865 Fit      -0.174024
 2866 Fit      -0.169280
 2867 Fit      -0.165348
 2868 Fit      -0.162012
 2869 Fit      -0.159169
 2870 Fit      -0.156781
 2871 Fit      -0.154843
 2872 Fit      -0.153359
 2873 Fit      -0.152324
 2874 Fit      -0.151709
 2875 Fit      -0.151458
 2876 Fit      -0.151483
 2877 Fit      -0.151672
 2878 Fit      -0.151894
 2879 Fit      -0.152008
 2880 Fit      -0.151858
 2881 Fit      -0.182083
 2882 Fit      -0.175749
 2883 Fit      -0.170739
 2884 Fit      -0.166629
 2885 Fit      -0.163165
 2886 Fit      -0.160213
 2887 Fit      -0.157716
 2888 Fit      -0.155659
 2889 Fit      -0.154044
 2890 Fit      -0.152869
 2891 Fit      -0.152110
 2892 Fit      -0.151718
 2893 Fit      -0.151615
 2894 Fit      -0.151693
 2895 Fit      -0.151825
 2896 Fit      -0.151866
 2897 Fit      -0.151657
 2898 Fit      -0.184173
 2899 Fit      -0.177318
 2900 Fit      -0.171931
 2901 Fit      -0.167562
 2902 Fit      -0.163920
 2903 Fit      -0.160839
 2904 Fit      -0.158244
 2905 Fit      -0.156111
 2906 Fit      -0.154439
 2907 Fit      -0.153221
 2908 Fit      -0.152431
 2909 Fit      -0.152009
 2910 Fit      -0.151861
 2911 Fit      -0.151865
 2912 Fit      -0.151874
 2913 Fit      -0.151730
 2914 Fit      -0.151252
 2915 Fit      -0.182012
 2916 Fit      -0.175622
 2917 Fit      -0.170493
 2918 Fit      -0.166296
 2919 Fit      -0.162795
 2920 Fit      -0.159856
 2921 Fit      -0.157425
 2922 Fit      -0.155489
 2923 Fit      -0.154043
 2924 Fit      -0.153061
 2925 Fit      -0.152482
 2926 Fit      -0.152204
 2927 Fit      -0.152088
 2928 Fit      -0.151975
 2929 Fit      -0.151701
 2930 Fit      -0.173457
 2931 Fit      -0.168804
 2932 Fit      -0.164912
 2933 Fit      -0.161645
 2934 Fit      -0.158925
 2935 Fit      -0.156725
 2936 Fit      -0.155039
 2937 Fit      -0.153847
 2938 Fit      -0.153091
 2939 Fit      -0.152664
 2940 Fit      -0.152421
 2941 Fit      -0.152202
 2942 Fit      -0.151877
 2943 Fit      -0.173405
 2944 Fit      -0.169018
 2945 Fit      -0.165139
 2946 Fit      -0.161821
 2947 Fit      -0.159056
 2948 Fit      -0.156849
 2949 Fit      -0.155202
 2950 Fit      -0.154078
 2951 Fit      -0.153383
 2952 Fit      -0.152969
 2953 Fit      -0.152675
 2954 Fit      -0.152410
 2955 Fit      -0.166980
 2956 Fit      -0.163457
 2957 Fit      -0.160326
 2958 Fit      -0.157773
 2959 Fit      -0.155877
 2960 Fit      -0.154621
 2961 Fit      -0.153877
 2962 Fit      -0.153470
 2963 Fit      -0.153319
 2964 Fit      -0.153588
 2965 Fit      -0.164727
 2966 Fit      -0.161777
 2967 Fit      -0.158866
 2968 Fit      -0.156629
 2969 Fit      -0.155247
 2970 Fit      -0.154620
 2971 Fit      -0.154700
 2972 Fit      -0.160136
 2973 Fit      -0.157498
 2974 Fit      -0.156254
 2975 Fit      -0.158565
 2976 Fit      -0.124950
 2977 Fit      -0.113036
 2978 Fit      -0.114675
 2979 Fit      -0.117896
 2980 Fit      -0.123024
 2981 Fit      -0.130549
 2982 Fit      -0.141209
 2983 Fit      -0.109747
 2984 Fit      -0.109767
 2985 Fit      -0.110995
 2986 Fit      -0.113606
 2987 Fit      -0.117866
 2988 Fit      -0.124169
 2989 Fit      -0.133115
 2990 Fit      -0.145633
 2991 Fit      -0.108535
 2992 Fit      -0.107406
 2993 Fit      -0.107243
 2994 Fit      -0.108133
 2995 Fit      -0.110212
 2996 Fit      -0.113682
 2997 Fit      -0.118839
 2998 Fit      -0.126122
 2999 Fit      -0.136193
 3000 Fit      -0.150080
 3001 Fit      -0.106820
 3002 Fit      -0.105700
 3003 Fit      -0.105472
 3004 Fit      -0.106210
 3005 Fit      -0.108031
 3006 Fit      -0.111102
 3007 Fit      -0.115666
 3008 Fit      -0.122076
 3009 Fit      -0.130847
 3010 Fit      -0.142749
 3011 Fit      -0.107585
 3012 Fit      -0.105659
 3013 Fit      -0.104598
 3014 Fit      -0.104449
 3015 Fit      -0.105291
 3016 Fit      -0.107245
 3017 Fit      -0.110484
 3018 Fit      -0.115257
 3019 Fit      -0.121915
 3020 Fit      -0.130966
 3021 Fit      -0.143140
 3022 Fit      -0.106985
 3023 Fit      -0.105116
 3024 Fit      -0.104164
 3025 Fit      -0.104188
 3026 Fit      -0.105282
 3027 Fit      -0.107582
 3028 Fit      -0.111281
 3029 Fit      -0.116647
 3030 Fit      -0.124052
 3031 Fit      -0.134004
 3032 Fit      -0.147177
 3033 Fit      -0.107019
 3034 Fit      -0.105262
 3035 Fit      -0.104465
 3036 Fit      -0.104700
 3037 Fit      -0.106071
 3038 Fit      -0.108723
 3039 Fit      -0.112852
 3040 Fit      -0.118717
 3041 Fit      -0.126649
 3042 Fit      -0.137039
 3043 Fit      -0.150263
 3044 Fit      -0.107726
 3045 Fit      -0.106063
 3046 Fit      -0.105544
 3047 Fit      -0.106276
 3048 Fit      -0.108400
 3049 Fit      -0.112097
 3050 Fit      -0.117594
 3051 Fit      -0.125143
 3052 Fit      -0.134960
 3053 Fit      -0.147050
 3054 Fit      -0.110446
 3055 Fit      -0.109166
 3056 Fit      -0.107680
 3057 Fit      -0.107574
 3058 Fit      -0.108994
 3059 Fit      -0.112106
 3060 Fit      -0.117089
 3061 Fit      -0.124079
 3062 Fit      -0.133045
 3063 Fit      -0.143529
 3064 Fit      -0.111898
 3065 Fit      -0.111421
 3066 Fit      -0.110205
 3067 Fit      -0.110864
 3068 Fit      -0.113590
 3069 Fit      -0.118508
 3070 Fit      -0.125538
 3071 Fit      -0.134124
 3072 Fit      -0.142874
 3073 Fit      -0.114288
 3074 Fit      -0.114606
 3075 Fit      -0.113960
 3076 Fit      -0.116443
 3077 Fit      -0.122012
 3078 Fit      -0.129665
 3079 Fit      -0.136929
 3080 Fit      -0.118876
 3081 Fit      -0.120047
 3082 Fit      -0.126475
 3083 Fit      -0.124443
 3084 Fit      -0.113701
 3085 Fit      -0.109275
 3086 Fit      -0.111666
 3087 Fit      -0.116803
 3088 Fit      -0.119522
 3089 Fit      -0.116802
 3090 Fit      -0.111665
 3091 Fit      -0.106061
 3092 Fit      -0.107221
 3093 Fit      -0.110574
 3094 Fit      -0.115607
 3095 Fit      -0.121137
 3096 Fit      -0.125401
 3097 Fit      -0.126972
 3098 Fit      -0.125401
 3099 Fit      -0.121136
 3100 Fit      -0.115606
 3101 Fit      -0.110572
 3102 Fit      -0.107220
 3103 Fit      -0.103924
 3104 Fit      -0.104638
 3105 Fit      -0.106782
 3106 Fit      -0.110334
 3107 Fit      -0.115179
 3108 Fit      -0.120963
 3109 Fit      -0.126937
 3110 Fit      -0.132020
 3111 Fit      -0.135269
 3112 Fit      -0.136346
 3113 Fit      -0.135268
 3114 Fit      -0.132020
 3115 Fit      -0.126936
 3116 Fit      -0.120961
 3117 Fit      -0.115177
 3118 Fit      -0.110332
 3119 Fit      -0.106781
 3120 Fit      -0.104638
 3121 Fit      -0.102757
 3122 Fit      -0.103296
 3123 Fit      -0.104925
 3124 Fit      -0.107682
 3125 Fit      -0.111617
 3126 Fit      -0.116745
 3127 Fit      -0.122961
 3128 Fit      -0.129884
 3129 Fit      -0.136734
 3130 Fit      -0.142438
 3131 Fit      -0.142437
 3132 Fit      -0.136732
 3133 Fit      -0.129882
 3134 Fit      -0.122959
 3135 Fit      -0.116743
 3136 Fit      -0.111615
 3137 Fit      -0.107681
 3138 Fit      -0.104924
 3139 Fit      -0.103295
 3140 Fit      -0.102485
 3141 Fit      -0.102938
 3142 Fit      -0.104310
 3143 Fit      -0.106648
 3144 Fit      -0.110031
 3145 Fit      -0.114568
 3146 Fit      -0.120368
 3147 Fit      -0.127464
 3148 Fit      -0.135658
 3149 Fit      -0.144321
 3150 Fit      -0.144319
 3151 Fit      -0.135655
 3152 Fit      -0.127461
 3153 Fit      -0.120366
 3154 Fit      -0.114566
 3155 Fit      -0.110029
 3156 Fit      -0.106646
 3157 Fit      -0.104309
 3158 Fit      -0.102937
 3159 Fit      -0.103049
 3160 Fit      -0.103432
 3161 Fit      -0.104595
 3162 Fit      -0.106576
 3163 Fit      -0.109450
 3164 Fit      -0.113335
 3165 Fit      -0.118399
 3166 Fit      -0.124840
 3167 Fit      -0.132836
 3168 Fit      -0.142407
 3169 Fit      -0.142404
 3170 Fit      -0.132833
 3171 Fit      -0.124837
 3172 Fit      -0.118396
 3173 Fit      -0.113332
 3174 Fit      -0.109447
 3175 Fit      -0.106574
 3176 Fit      -0.104593
 3177 Fit      -0.103432
 3178 Fit      -0.104407
 3179 Fit      -0.104777
 3180 Fit      -0.105896
 3181 Fit      -0.107802
 3182 Fit      -0.110571
 3183 Fit      -0.114335
 3184 Fit      -0.119300
 3185 Fit      -0.125763
 3186 Fit      -0.125759
 3187 Fit      -0.119297
 3188 Fit      -0.114331
 3189 Fit      -0.110568
 3190 Fit      -0.107799
 3191 Fit      -0.105894
 3192 Fit      -0.104776
 3193 Fit      -0.106535
 3194 Fit      -0.106887
 3195 Fit      -0.107951
 3196 Fit      -0.109756
 3197 Fit      -0.112370
 3198 Fit      -0.112367
 3199 Fit      -0.109754
 3200 Fit      -0.107949
 3201 Fit      -0.106886
 3202 Fit      -0.124957
 3203 Fit      -0.141220
 3204 Fit      -0.130558
 3205 Fit      -0.123031
 3206 Fit      -0.117902
 3207 Fit      -0.114680
 3208 Fit      -0.113040
 3209 Fit      -0.145644
 3210 Fit      -0.133124
 3211 Fit      -0.124176
 3212 Fit      -0.117872
 3213 Fit      -0.113611
 3214 Fit      -0.110999
 3215 Fit      -0.109770
 3216 Fit      -0.109750
 3217 Fit      -0.150091
 3218 Fit      -0.136201
 3219 Fit      -0.126128
 3220 Fit      -0.118844
 3221 Fit      -0.113686
 3222 Fit      -0.110216
 3223 Fit      -0.108136
 3224 Fit      -0.107245
 3225 Fit      -0.107407
 3226 Fit      -0.108536
 3227 Fit      -0.142756
 3228 Fit      -0.130853
 3229 Fit      -0.122081
 3230 Fit      -0.115670
 3231 Fit      -0.111105
 3232 Fit      -0.108033
 3233 Fit      -0.106212
 3234 Fit      -0.105473
 3235 Fit      -0.105701
 3236 Fit      -0.106820
 3237 Fit      -0.107583
 3238 Fit      -0.143145
 3239 Fit      -0.130970
 3240 Fit      -0.121919
 3241 Fit      -0.115260
 3242 Fit      -0.110486
 3243 Fit      -0.107246
 3244 Fit      -0.105292
 3245 Fit      -0.104450
 3246 Fit      -0.104598
 3247 Fit      -0.105658
 3248 Fit      -0.106983
 3249 Fit      -0.147180
 3250 Fit      -0.134007
 3251 Fit      -0.124054
 3252 Fit      -0.116648
 3253 Fit      -0.111282
 3254 Fit      -0.107583
 3255 Fit      -0.105283
 3256 Fit      -0.104188
 3257 Fit      -0.104163
 3258 Fit      -0.105114
 3259 Fit      -0.107016
 3260 Fit      -0.150263
 3261 Fit      -0.137039
 3262 Fit      -0.126650
 3263 Fit      -0.118718
 3264 Fit      -0.112852
 3265 Fit      -0.108723
 3266 Fit      -0.106071
 3267 Fit      -0.104699
 3268 Fit      -0.104463
 3269 Fit      -0.105260
 3270 Fit      -0.107723
 3271 Fit      -0.110442
 3272 Fit      -0.147047
 3273 Fit      -0.134959
 3274 Fit      -0.125142
 3275 Fit      -0.117593
 3276 Fit      -0.112096
 3277 Fit      -0.108398
 3278 Fit      -0.106275
 3279 Fit      -0.105542
 3280 Fit      -0.106060
 3281 Fit      -0.109162
 3282 Fit      -0.111894
 3283 Fit      -0.143523
 3284 Fit      -0.133042
 3285 Fit      -0.124077
 3286 Fit      -0.117087
 3287 Fit      -0.112104
 3288 Fit      -0.108991
 3289 Fit      -0.107571
 3290 Fit      -0.107676
 3291 Fit      -0.111416
 3292 Fit      -0.114283
 3293 Fit      -0.142867
 3294 Fit      -0.134118
 3295 Fit      -0.125534
 3296 Fit      -0.118505
 3297 Fit      -0.113587
 3298 Fit      -0.110861
 3299 Fit      -0.110201
 3300 Fit      -0.114601
 3301 Fit      -0.136922
 3302 Fit      -0.129659
 3303 Fit      -0.122007
 3304 Fit      -0.116438
 3305 Fit      -0.113955
 3306 Fit      -0.118870
 3307 Fit      -0.126469
 3308 Fit      -0.120041
 3309 Fit      -0.124436
 -----------------------------------------------------------------
 Leave Link  602 at Tue Sep 30 17:07:34 2025, MaxMem=  4294967296 cpu:               2.6 elap:               0.2
 (Enter /software/sse/easybuild/prefix/software/Gaussian/16.C.01-avx2-nsc1/g16/l9999.exe)

 Test job not archived.
 1\1\NSC-N1098\FOpt\RMP2-FC\Aug-CC-pVTZ\C2H3O2(1-)\X_DAVVA\30-Sep-2025\
 0\\#P MP2/aug-cc-pvtz Opt=tight density=MP2 Pop=(MK,Hirshfeld) iop(6/3
 3=2) iop(6/42=6) maxdisk=128GB\\acetate\\-1,1\C,-1.3416968257,-0.00002
 34054,-0.0043373219\C,0.2082251385,0.0000011219,-0.0104863176\O,0.7531
 623882,-1.1369399279,0.0013803946\O,0.7531115054,1.1369668801,0.001376
 7159\H,-1.7312329517,-0.8962384987,-0.4865462612\H,-1.6808215925,0.000
 1628441,1.0343361249\H,-1.7312476621,0.8960209861,-0.4868533347\\Versi
 on=ES64L-G16RevC.01\State=1-A\HF=-227.3282759\MP2=-228.1608368\RMSD=5.
 600e-09\RMSF=4.706e-06\Dipole=1.4588713,0.0000341,-0.0046253\Quadrupol
 e=-0.9314923,-3.3477375,4.2792299,0.0000631,0.0312019,0.0000005\PG=C01
  [X(C2H3O2)]\\@


 DEPRESSION IS WAITING FOR YOUR SHIP TO COME IN,
 AND FINDING OUT IT'S THE TITANIC.
 Job cpu time:       0 days  1 hours 52 minutes  5.6 seconds.
 Elapsed time:       0 days  0 hours  8 minutes 39.9 seconds.
 File lengths (MBytes):  RWF=     39 Int=      0 D2E=      0 Chk=     12 Scr=      1
 Normal termination of Gaussian 16 at Tue Sep 30 17:07:34 2025.
