 Entering Gaussian System, Link 0=/software/sse/easybuild/prefix/software/Gaussian/16.C.01-avx2-nsc1/g16/g16.orig
 Input=methylammonium.wrap
 Output=methylammonium.log
 Initial command:
 /software/sse/easybuild/prefix/software/Gaussian/16.C.01-avx2-nsc1/g16/l1.exe "/scratch/local/Gau-919405.inp" -scrdir="/scratch/local/"
 Entering Link 1 = /software/sse/easybuild/prefix/software/Gaussian/16.C.01-avx2-nsc1/g16/l1.exe PID=    919406.
  
 Copyright (c) 1988-2019, Gaussian, Inc.  All Rights Reserved.
  
 This is part of the Gaussian(R) 16 program.  It is based on
 the Gaussian(R) 09 system (copyright 2009, Gaussian, Inc.),
 the Gaussian(R) 03 system (copyright 2003, Gaussian, Inc.),
 the Gaussian(R) 98 system (copyright 1998, Gaussian, Inc.),
 the Gaussian(R) 94 system (copyright 1995, Gaussian, Inc.),
 the Gaussian 92(TM) system (copyright 1992, Gaussian, Inc.),
 the Gaussian 90(TM) system (copyright 1990, Gaussian, Inc.),
 the Gaussian 88(TM) system (copyright 1988, Gaussian, Inc.),
 the Gaussian 86(TM) system (copyright 1986, Carnegie Mellon
 University), and the Gaussian 82(TM) system (copyright 1983,
 Carnegie Mellon University). Gaussian is a federally registered
 trademark of Gaussian, Inc.
  
 This software contains proprietary and confidential information,
 including trade secrets, belonging to Gaussian, Inc.
  
 This software is provided under written license and may be
 used, copied, transmitted, or stored only in accord with that
 written license.
  
 The following legend is applicable only to US Government
 contracts under FAR:
  
                    RESTRICTED RIGHTS LEGEND
  
 Use, reproduction and disclosure by the US Government is
 subject to restrictions as set forth in subparagraphs (a)
 and (c) of the Commercial Computer Software - Restricted
 Rights clause in FAR 52.227-19.
  
 Gaussian, Inc.
 340 Quinnipiac St., Bldg. 40, Wallingford CT 06492
  
  
 ---------------------------------------------------------------
 Warning -- This program may not be used in any manner that
 competes with the business of Gaussian, Inc. or will provide
 assistance to any competitor of Gaussian, Inc.  The licensee
 of this program is prohibited from giving any competitor of
 Gaussian, Inc. access to this program.  By using this program,
 the user acknowledges that Gaussian, Inc. is engaged in the
 business of creating and licensing software in the field of
 computational chemistry and represents and warrants to the
 licensee that it is not a competitor of Gaussian, Inc. and that
 it will not use this program in any manner prohibited above.
 ---------------------------------------------------------------
  

 Cite this work as:
 Gaussian 16, Revision C.01,
 M. J. Frisch, G. W. Trucks, H. B. Schlegel, G. E. Scuseria, 
 M. A. Robb, J. R. Cheeseman, G. Scalmani, V. Barone, 
 G. A. Petersson, H. Nakatsuji, X. Li, M. Caricato, A. V. Marenich, 
 J. Bloino, B. G. Janesko, R. Gomperts, B. Mennucci, H. P. Hratchian, 
 J. V. Ortiz, A. F. Izmaylov, J. L. Sonnenberg, D. Williams-Young, 
 F. Ding, F. Lipparini, F. Egidi, J. Goings, B. Peng, A. Petrone, 
 T. Henderson, D. Ranasinghe, V. G. Zakrzewski, J. Gao, N. Rega, 
 G. Zheng, W. Liang, M. Hada, M. Ehara, K. Toyota, R. Fukuda, 
 J. Hasegawa, M. Ishida, T. Nakajima, Y. Honda, O. Kitao, H. Nakai, 
 T. Vreven, K. Throssell, J. A. Montgomery, Jr., J. E. Peralta, 
 F. Ogliaro, M. J. Bearpark, J. J. Heyd, E. N. Brothers, K. N. Kudin, 
 V. N. Staroverov, T. A. Keith, R. Kobayashi, J. Normand, 
 K. Raghavachari, A. P. Rendell, J. C. Burant, S. S. Iyengar, 
 J. Tomasi, M. Cossi, J. M. Millam, M. Klene, C. Adamo, R. Cammi, 
 J. W. Ochterski, R. L. Martin, K. Morokuma, O. Farkas, 
 J. B. Foresman, and D. J. Fox, Gaussian, Inc., Wallingford CT, 2019.
 
 ******************************************
 Gaussian 16:  ES64L-G16RevC.01  3-Jul-2019
                30-Sep-2025 
 ******************************************
 %mem=12000MB
 %nprocshared=16
 Will use up to   16 processors via shared memory.
 %mem=32Gb
 %chk=methylammonium.chk
 ----------------------------------------------------------------------
 #P MP2/aug-cc-pvtz Opt=tight density=MP2 Pop=(MK,Hirshfeld) iop(6/33=2
 ) iop(6/42=6) maxdisk=128GB
 ----------------------------------------------------------------------
 1/7=10,18=20,19=15,38=1/1,3;
 2/9=110,12=2,17=6,18=5,40=1/2;
 3/5=16,6=1,7=10,11=9,25=1,30=1,71=1/1,2,3;
 4//1;
 5/5=2,38=5/2;
 8/6=4,10=1/1;
 9/15=2,16=-3/6;
 10/5=1/2;
 6/7=2,8=2,9=2,10=2,15=8,20=1,22=2,33=2,42=6,79=1/1,2;
 7/12=2/1,2,3,16;
 1/7=10,18=20,19=15/3(2);
 2/9=110/2;
 99//99;
 2/9=110/2;
 3/5=16,6=1,7=10,11=9,25=1,30=1,71=1/1,2,3;
 4/5=5,16=3,69=1/1;
 5/5=2,38=5/2;
 8/6=4,10=1/1;
 9/15=2,16=-3/6;
 10/5=1/2;
 7/12=2/1,2,3,16;
 1/7=10,18=20,19=15/3(-8);
 2/9=110/2;
 6/7=2,8=2,9=2,10=2,15=8,20=1,22=2,33=2,42=6,79=1/1,2;
 99/9=10/99;
 Leave Link    1 at Tue Sep 30 16:58:49 2025, MaxMem=  4294967296 cpu:               1.2 elap:               0.1
 (Enter /software/sse/easybuild/prefix/software/Gaussian/16.C.01-avx2-nsc1/g16/l101.exe)
 --------------
 methylammonium
 --------------
 Symbolic Z-matrix:
 Charge =  1 Multiplicity = 1
 N                     0.        0.       -0.70716 
 C                     0.        0.        0.79612 
 H                     0.        0.93845  -1.07406 
 H                    -0.81272  -0.46922  -1.07406 
 H                     0.81272  -0.46922  -1.07406 
 H                    -0.88634   0.51173   1.13187 
 H                     0.88634   0.51173   1.13187 
 H                     0.       -1.02346   1.13187 
 
 ITRead=  0  0  0  0  0  0  0  0
 MicOpt= -1 -1 -1 -1 -1 -1 -1 -1
 NAtoms=      8 NQM=        8 NQMF=       0 NMMI=      0 NMMIF=      0
                NMic=       0 NMicF=      0.
                    Isotopes and Nuclear Properties:
 (Nuclear quadrupole moments (NQMom) in fm**2, nuclear magnetic moments (NMagM)
  in nuclear magnetons)

  Atom         1           2           3           4           5           6           7           8
 IAtWgt=          14          12           1           1           1           1           1           1
 AtmWgt=  14.0030740  12.0000000   1.0078250   1.0078250   1.0078250   1.0078250   1.0078250   1.0078250
 NucSpn=           2           0           1           1           1           1           1           1
 AtZEff=  -0.0000000  -0.0000000  -0.0000000  -0.0000000  -0.0000000  -0.0000000  -0.0000000  -0.0000000
 NQMom=    2.0440000   0.0000000   0.0000000   0.0000000   0.0000000   0.0000000   0.0000000   0.0000000
 NMagM=    0.4037610   0.0000000   2.7928460   2.7928460   2.7928460   2.7928460   2.7928460   2.7928460
 AtZNuc=   7.0000000   6.0000000   1.0000000   1.0000000   1.0000000   1.0000000   1.0000000   1.0000000
 Leave Link  101 at Tue Sep 30 16:58:50 2025, MaxMem=  4294967296 cpu:               5.4 elap:               0.4
 (Enter /software/sse/easybuild/prefix/software/Gaussian/16.C.01-avx2-nsc1/g16/l103.exe)

 GradGradGradGradGradGradGradGradGradGradGradGradGradGradGradGradGradGrad
 Berny optimization.
 Initialization pass.
                           ----------------------------
                           !    Initial Parameters    !
                           ! (Angstroms and Degrees)  !
 --------------------------                            --------------------------
 ! Name  Definition              Value          Derivative Info.                !
 --------------------------------------------------------------------------------
 ! R1    R(1,2)                  1.5033         estimate D2E/DX2                !
 ! R2    R(1,3)                  1.0076         estimate D2E/DX2                !
 ! R3    R(1,4)                  1.0076         estimate D2E/DX2                !
 ! R4    R(1,5)                  1.0076         estimate D2E/DX2                !
 ! R5    R(2,6)                  1.0771         estimate D2E/DX2                !
 ! R6    R(2,7)                  1.0771         estimate D2E/DX2                !
 ! R7    R(2,8)                  1.0771         estimate D2E/DX2                !
 ! A1    A(2,1,3)              111.3537         estimate D2E/DX2                !
 ! A2    A(2,1,4)              111.3538         estimate D2E/DX2                !
 ! A3    A(2,1,5)              111.3538         estimate D2E/DX2                !
 ! A4    A(3,1,4)              107.5247         estimate D2E/DX2                !
 ! A5    A(3,1,5)              107.5247         estimate D2E/DX2                !
 ! A6    A(4,1,5)              107.5252         estimate D2E/DX2                !
 ! A7    A(1,2,6)              108.1623         estimate D2E/DX2                !
 ! A8    A(1,2,7)              108.1623         estimate D2E/DX2                !
 ! A9    A(1,2,8)              108.1623         estimate D2E/DX2                !
 ! A10   A(6,2,7)              110.7477         estimate D2E/DX2                !
 ! A11   A(6,2,8)              110.7479         estimate D2E/DX2                !
 ! A12   A(7,2,8)              110.7479         estimate D2E/DX2                !
 ! D1    D(3,1,2,6)             59.9999         estimate D2E/DX2                !
 ! D2    D(3,1,2,7)            -59.9999         estimate D2E/DX2                !
 ! D3    D(3,1,2,8)            180.0            estimate D2E/DX2                !
 ! D4    D(4,1,2,6)            -59.9998         estimate D2E/DX2                !
 ! D5    D(4,1,2,7)           -179.9997         estimate D2E/DX2                !
 ! D6    D(4,1,2,8)             60.0002         estimate D2E/DX2                !
 ! D7    D(5,1,2,6)            179.9997         estimate D2E/DX2                !
 ! D8    D(5,1,2,7)             59.9998         estimate D2E/DX2                !
 ! D9    D(5,1,2,8)            -60.0002         estimate D2E/DX2                !
 --------------------------------------------------------------------------------
 Trust Radius=3.00D-01 FncErr=1.00D-07 GrdErr=1.00D-07 EigMax=2.50D+02 EigMin=1.00D-04
 Number of steps in this run=     38 maximum allowed number of steps=    100.
 GradGradGradGradGradGradGradGradGradGradGradGradGradGradGradGradGradGrad

 Leave Link  103 at Tue Sep 30 16:58:50 2025, MaxMem=  4294967296 cpu:               0.2 elap:               0.0
 (Enter /software/sse/easybuild/prefix/software/Gaussian/16.C.01-avx2-nsc1/g16/l202.exe)
                          Input orientation:                          
 ---------------------------------------------------------------------
 Center     Atomic      Atomic             Coordinates (Angstroms)
 Number     Number       Type             X           Y           Z
 ---------------------------------------------------------------------
      1          7           0        0.000000    0.000000   -0.707160
      2          6           0        0.000000    0.000000    0.796120
      3          1           0        0.000000    0.938450   -1.074060
      4          1           0       -0.812720   -0.469220   -1.074060
      5          1           0        0.812720   -0.469220   -1.074060
      6          1           0       -0.886340    0.511730    1.131870
      7          1           0        0.886340    0.511730    1.131870
      8          1           0        0.000000   -1.023460    1.131870
 ---------------------------------------------------------------------
                    Distance matrix (angstroms):
                    1          2          3          4          5
     1  N    0.000000
     2  C    1.503280   0.000000
     3  H    1.007623   2.092430   0.000000
     4  H    1.007619   2.092428   1.625438   0.000000
     5  H    1.007619   2.092428   1.625438   1.625440   0.000000
     6  H    2.104637   1.077123   2.415329   2.415328   2.952151
     7  H    2.104637   1.077123   2.415329   2.952151   2.415328
     8  H    2.104638   1.077125   2.952155   2.415331   2.415331
                    6          7          8
     6  H    0.000000
     7  H    1.772680   0.000000
     8  H    1.772684   1.772684   0.000000
 This structure is nearly, but not quite of a higher symmetry.
 Consider Symm=Loose if the higher symmetry is desired.
 Stoichiometry    CH6N(1+)
 Framework group  CS[SG(CH2N),X(H4)]
 Deg. of freedom    11
 Full point group                 CS      NOp   2
 Largest Abelian subgroup         CS      NOp   2
 Largest concise Abelian subgroup CS      NOp   2
                         Standard orientation:                         
 ---------------------------------------------------------------------
 Center     Atomic      Atomic             Coordinates (Angstroms)
 Number     Number       Type             X           Y           Z
 ---------------------------------------------------------------------
      1          7           0       -0.000001    0.707162    0.000000
      2          6           0       -0.000001   -0.796118   -0.000000
      3          1           0        0.938449    1.074062    0.000000
      4          1           0       -0.469221    1.074062    0.812720
      5          1           0       -0.469221    1.074062   -0.812720
      6          1           0        0.511729   -1.131868    0.886340
      7          1           0        0.511729   -1.131868   -0.886340
      8          1           0       -1.023461   -1.131868   -0.000000
 ---------------------------------------------------------------------
 Rotational constants (GHZ):          86.6901426          20.3097674          20.3097641
 Leave Link  202 at Tue Sep 30 16:58:50 2025, MaxMem=  4294967296 cpu:               0.1 elap:               0.0
 (Enter /software/sse/easybuild/prefix/software/Gaussian/16.C.01-avx2-nsc1/g16/l301.exe)
 Standard basis: Aug-CC-pVTZ (5D, 7F)
 Ernie: Thresh=  0.10000D-02 Tol=  0.10000D-05 Strict=F.
 Ernie:  6 primitive shells out of 126 were deleted.
 There are   160 symmetry adapted cartesian basis functions of A'  symmetry.
 There are   100 symmetry adapted cartesian basis functions of A"  symmetry.
 There are   138 symmetry adapted basis functions of A'  symmetry.
 There are    92 symmetry adapted basis functions of A"  symmetry.
   230 basis functions,   306 primitive gaussians,   260 cartesian basis functions
     9 alpha electrons        9 beta electrons
       nuclear repulsion energy        48.2133429556 Hartrees.
 IExCor=    0 DFT=F Ex=HF Corr=None ExCW=0 ScaHFX=  1.000000
 ScaDFX=  1.000000  1.000000  1.000000  1.000000 ScalE2=  1.000000  1.000000
 IRadAn=      5 IRanWt=     -1 IRanGd=            0 ICorTp=0 IEmpDi=  4
 NAtoms=    8 NActive=    8 NUniq=    6 SFac= 1.78D+00 NAtFMM=   60 NAOKFM=F Big=F
 Integral buffers will be    131072 words long.
 Raffenetti 1 integral format.
 Two-electron integral symmetry is turned on.
 Leave Link  301 at Tue Sep 30 16:58:51 2025, MaxMem=  4294967296 cpu:               0.8 elap:               0.1
 (Enter /software/sse/easybuild/prefix/software/Gaussian/16.C.01-avx2-nsc1/g16/l302.exe)
 NPDir=0 NMtPBC=     1 NCelOv=     1 NCel=       1 NClECP=     1 NCelD=      1
         NCelK=      1 NCelE2=     1 NClLst=     1 CellRange=     0.0.
 One-electron integrals computed using PRISM.
 One-electron integral symmetry used in STVInt
 NBasis=   230 RedAO= T EigKep=  3.10D-05  NBF=   138    92
 NBsUse=   230 1.00D-06 EigRej= -1.00D+00 NBFU=   138    92
 Leave Link  302 at Tue Sep 30 16:58:51 2025, MaxMem=  4294967296 cpu:               2.2 elap:               0.2
 (Enter /software/sse/easybuild/prefix/software/Gaussian/16.C.01-avx2-nsc1/g16/l303.exe)
 DipDrv:  MaxL=1.
 Leave Link  303 at Tue Sep 30 16:58:52 2025, MaxMem=  4294967296 cpu:               0.4 elap:               0.0
 (Enter /software/sse/easybuild/prefix/software/Gaussian/16.C.01-avx2-nsc1/g16/l401.exe)
 ExpMin= 2.53D-02 ExpMax= 1.14D+04 ExpMxC= 3.89D+02 IAcc=3 IRadAn=         5 AccDes= 0.00D+00
 Harris functional with IExCor=  205 and IRadAn=       5 diagonalized for initial guess.
 HarFok:  IExCor=  205 AccDes= 0.00D+00 IRadAn=         5 IDoV= 1 UseB2=F ITyADJ=14
 ICtDFT=  3500011 ScaDFX=  1.000000  1.000000  1.000000  1.000000
 FoFCou: FMM=F IPFlag=           0 FMFlag=      100000 FMFlg1=           0
         NFxFlg=           0 DoJE=T BraDBF=F KetDBF=T FulRan=T
         wScrn=  0.000000 ICntrl=       500 IOpCl=  0 I1Cent=   200000004 NGrid=           0
         NMat0=    1 NMatS0=      1 NMatT0=    0 NMatD0=    1 NMtDS0=    0 NMtDT0=    0
 Petite list used in FoFCou.
 Harris En= -95.8748133245802    
 JPrj=0 DoOrth=F DoCkMO=F.
 Initial guess orbital symmetries:
       Occupied  (A') (A') (A') (A') (A") (A') (A') (A") (A')
       Virtual   (A') (A') (A") (A') (A') (A') (A") (A') (A") (A')
                 (A') (A') (A") (A') (A') (A") (A") (A') (A') (A')
                 (A") (A') (A") (A') (A') (A") (A') (A') (A") (A')
                 (A') (A") (A") (A') (A') (A') (A") (A') (A") (A")
                 (A') (A') (A") (A') (A") (A') (A') (A") (A') (A')
                 (A') (A") (A') (A") (A') (A') (A") (A") (A') (A')
                 (A") (A') (A') (A") (A') (A") (A') (A') (A") (A")
                 (A') (A") (A') (A") (A') (A") (A') (A') (A") (A')
                 (A') (A") (A") (A') (A') (A") (A') (A') (A') (A")
                 (A") (A') (A') (A") (A") (A') (A') (A') (A") (A')
                 (A") (A") (A') (A') (A") (A") (A') (A') (A') (A")
                 (A') (A') (A") (A') (A') (A") (A") (A") (A') (A')
                 (A") (A') (A") (A') (A') (A") (A') (A') (A") (A')
                 (A') (A") (A') (A") (A') (A') (A") (A') (A') (A")
                 (A') (A") (A") (A') (A') (A") (A') (A') (A') (A")
                 (A") (A') (A') (A') (A") (A") (A') (A") (A") (A')
                 (A") (A') (A") (A') (A") (A') (A") (A') (A') (A")
                 (A') (A') (A') (A") (A") (A') (A') (A") (A') (A')
                 (A') (A") (A') (A") (A") (A') (A') (A") (A') (A')
                 (A") (A") (A') (A') (A") (A') (A") (A') (A') (A")
                 (A") (A') (A") (A') (A') (A') (A") (A") (A') (A')
                 (A") (A') (A") (A') (A') (A') (A") (A') (A") (A')
                 (A')
 The electronic state of the initial guess is 1-A'.
 Leave Link  401 at Tue Sep 30 16:58:53 2025, MaxMem=  4294967296 cpu:               3.6 elap:               0.2
 (Enter /software/sse/easybuild/prefix/software/Gaussian/16.C.01-avx2-nsc1/g16/l502.exe)
 Keep R1 ints in memory in symmetry-blocked form, NReq=529702683.
 FoFCou: FMM=F IPFlag=           0 FMFlag=           0 FMFlg1=           0
         NFxFlg=           0 DoJE=F BraDBF=F KetDBF=F FulRan=T
         wScrn=  0.000000 ICntrl=       600 IOpCl=  0 I1Cent=           0 NGrid=           0
         NMat0=    1 NMatS0=  26565 NMatT0=    0 NMatD0=    1 NMtDS0=    0 NMtDT0=    0
 Petite list used in FoFCou.
 Closed shell SCF:
 Using DIIS extrapolation, IDIIS=  1040.
 NGot=  4294967296 LenX=  4117987251 LenY=  4117919210
 Requested convergence on RMS density matrix=1.00D-08 within 128 cycles.
 Requested convergence on MAX density matrix=1.00D-06.
 Requested convergence on             energy=1.00D-06.
 No special actions if energy rises.

 Cycle   1  Pass 1  IDiag  1:
 E= -95.5217827002720    
 DIIS: error= 4.04D-02 at cycle   1 NSaved=   1.
 NSaved= 1 IEnMin= 1 EnMin= -95.5217827002720     IErMin= 1 ErrMin= 4.04D-02
 ErrMax= 4.04D-02  0.00D+00 EMaxC= 1.00D-01 BMatC= 2.11D-01 BMatP= 2.11D-01
 IDIUse=3 WtCom= 5.96D-01 WtEn= 4.04D-01
 Coeff-Com:  0.100D+01
 Coeff-En:   0.100D+01
 Coeff:      0.100D+01
 Gap=     0.625 Goal=   None    Shift=    0.000
 GapD=    0.625 DampG=2.000 DampE=0.500 DampFc=1.0000 IDamp=-1.
 RMSDP=1.36D-03 MaxDP=6.53D-02              OVMax= 9.28D-02

 Cycle   2  Pass 1  IDiag  1:
 E= -95.6085186140208     Delta-E=       -0.086735913749 Rises=F Damp=F
 DIIS: error= 1.09D-02 at cycle   2 NSaved=   2.
 NSaved= 2 IEnMin= 2 EnMin= -95.6085186140208     IErMin= 2 ErrMin= 1.09D-02
 ErrMax= 1.09D-02  0.00D+00 EMaxC= 1.00D-01 BMatC= 1.30D-02 BMatP= 2.11D-01
 IDIUse=3 WtCom= 8.91D-01 WtEn= 1.09D-01
 Coeff-Com:  0.100D+00 0.900D+00
 Coeff-En:   0.000D+00 0.100D+01
 Coeff:      0.891D-01 0.911D+00
 Gap=     0.677 Goal=   None    Shift=    0.000
 RMSDP=4.22D-04 MaxDP=1.92D-02 DE=-8.67D-02 OVMax= 3.19D-02

 Cycle   3  Pass 1  IDiag  1:
 E= -95.6181912431566     Delta-E=       -0.009672629136 Rises=F Damp=F
 DIIS: error= 2.78D-03 at cycle   3 NSaved=   3.
 NSaved= 3 IEnMin= 3 EnMin= -95.6181912431566     IErMin= 3 ErrMin= 2.78D-03
 ErrMax= 2.78D-03  0.00D+00 EMaxC= 1.00D-01 BMatC= 1.13D-03 BMatP= 1.30D-02
 IDIUse=3 WtCom= 9.72D-01 WtEn= 2.78D-02
 Coeff-Com: -0.233D-01 0.184D+00 0.840D+00
 Coeff-En:   0.000D+00 0.000D+00 0.100D+01
 Coeff:     -0.226D-01 0.178D+00 0.844D+00
 Gap=     0.659 Goal=   None    Shift=    0.000
 RMSDP=8.97D-05 MaxDP=4.48D-03 DE=-9.67D-03 OVMax= 7.80D-03

 Cycle   4  Pass 1  IDiag  1:
 E= -95.6191983452173     Delta-E=       -0.001007102061 Rises=F Damp=F
 DIIS: error= 6.48D-04 at cycle   4 NSaved=   4.
 NSaved= 4 IEnMin= 4 EnMin= -95.6191983452173     IErMin= 4 ErrMin= 6.48D-04
 ErrMax= 6.48D-04  0.00D+00 EMaxC= 1.00D-01 BMatC= 2.40D-05 BMatP= 1.13D-03
 IDIUse=3 WtCom= 9.94D-01 WtEn= 6.48D-03
 Coeff-Com: -0.130D-02-0.177D-01 0.343D-03 0.102D+01
 Coeff-En:   0.000D+00 0.000D+00 0.000D+00 0.100D+01
 Coeff:     -0.130D-02-0.176D-01 0.341D-03 0.102D+01
 Gap=     0.659 Goal=   None    Shift=    0.000
 RMSDP=2.40D-05 MaxDP=1.25D-03 DE=-1.01D-03 OVMax= 3.25D-03

 Cycle   5  Pass 1  IDiag  1:
 E= -95.6192370622308     Delta-E=       -0.000038717013 Rises=F Damp=F
 DIIS: error= 1.81D-04 at cycle   5 NSaved=   5.
 NSaved= 5 IEnMin= 5 EnMin= -95.6192370622308     IErMin= 5 ErrMin= 1.81D-04
 ErrMax= 1.81D-04  0.00D+00 EMaxC= 1.00D-01 BMatC= 3.90D-06 BMatP= 2.40D-05
 IDIUse=3 WtCom= 9.98D-01 WtEn= 1.81D-03
 Coeff-Com:  0.213D-02-0.226D-01-0.889D-01 0.131D+00 0.978D+00
 Coeff-En:   0.000D+00 0.000D+00 0.000D+00 0.000D+00 0.100D+01
 Coeff:      0.213D-02-0.225D-01-0.887D-01 0.131D+00 0.978D+00
 Gap=     0.660 Goal=   None    Shift=    0.000
 RMSDP=9.33D-06 MaxDP=3.77D-04 DE=-3.87D-05 OVMax= 8.10D-04

 Cycle   6  Pass 1  IDiag  1:
 E= -95.6192431727380     Delta-E=       -0.000006110507 Rises=F Damp=F
 DIIS: error= 7.23D-05 at cycle   6 NSaved=   6.
 NSaved= 6 IEnMin= 6 EnMin= -95.6192431727380     IErMin= 6 ErrMin= 7.23D-05
 ErrMax= 7.23D-05  0.00D+00 EMaxC= 1.00D-01 BMatC= 1.89D-07 BMatP= 3.90D-06
 IDIUse=1 WtCom= 1.00D+00 WtEn= 0.00D+00
 Coeff-Com:  0.369D-03-0.130D-02-0.910D-02-0.665D-01 0.612D-01 0.102D+01
 Coeff:      0.369D-03-0.130D-02-0.910D-02-0.665D-01 0.612D-01 0.102D+01
 Gap=     0.660 Goal=   None    Shift=    0.000
 RMSDP=2.23D-06 MaxDP=1.15D-04 DE=-6.11D-06 OVMax= 3.57D-04

 Cycle   7  Pass 1  IDiag  1:
 E= -95.6192435267795     Delta-E=       -0.000000354042 Rises=F Damp=F
 DIIS: error= 9.76D-06 at cycle   7 NSaved=   7.
 NSaved= 7 IEnMin= 7 EnMin= -95.6192435267795     IErMin= 7 ErrMin= 9.76D-06
 ErrMax= 9.76D-06  0.00D+00 EMaxC= 1.00D-01 BMatC= 7.30D-09 BMatP= 1.89D-07
 IDIUse=1 WtCom= 1.00D+00 WtEn= 0.00D+00
 Coeff-Com: -0.163D-03 0.130D-02 0.606D-02 0.101D-01-0.580D-01-0.230D+00
 Coeff-Com:  0.127D+01
 Coeff:     -0.163D-03 0.130D-02 0.606D-02 0.101D-01-0.580D-01-0.230D+00
 Coeff:      0.127D+01
 Gap=     0.660 Goal=   None    Shift=    0.000
 RMSDP=5.37D-07 MaxDP=2.30D-05 DE=-3.54D-07 OVMax= 6.39D-05

 Cycle   8  Pass 1  IDiag  1:
 E= -95.6192435436277     Delta-E=       -0.000000016848 Rises=F Damp=F
 DIIS: error= 1.64D-06 at cycle   8 NSaved=   8.
 NSaved= 8 IEnMin= 8 EnMin= -95.6192435436277     IErMin= 8 ErrMin= 1.64D-06
 ErrMax= 1.64D-06  0.00D+00 EMaxC= 1.00D-01 BMatC= 2.26D-10 BMatP= 7.30D-09
 IDIUse=1 WtCom= 1.00D+00 WtEn= 0.00D+00
 Coeff-Com:  0.180D-04-0.178D-03-0.989D-03-0.628D-03 0.977D-02 0.264D-01
 Coeff-Com: -0.309D+00 0.127D+01
 Coeff:      0.180D-04-0.178D-03-0.989D-03-0.628D-03 0.977D-02 0.264D-01
 Coeff:     -0.309D+00 0.127D+01
 Gap=     0.660 Goal=   None    Shift=    0.000
 RMSDP=1.15D-07 MaxDP=3.55D-06 DE=-1.68D-08 OVMax= 1.27D-05

 Cycle   9  Pass 1  IDiag  1:
 E= -95.6192435441665     Delta-E=       -0.000000000539 Rises=F Damp=F
 DIIS: error= 2.31D-07 at cycle   9 NSaved=   9.
 NSaved= 9 IEnMin= 9 EnMin= -95.6192435441665     IErMin= 9 ErrMin= 2.31D-07
 ErrMax= 2.31D-07  0.00D+00 EMaxC= 1.00D-01 BMatC= 3.53D-12 BMatP= 2.26D-10
 IDIUse=1 WtCom= 1.00D+00 WtEn= 0.00D+00
 Coeff-Com: -0.919D-06 0.172D-04 0.982D-04-0.179D-03-0.100D-02 0.152D-02
 Coeff-Com:  0.325D-01-0.264D+00 0.123D+01
 Coeff:     -0.919D-06 0.172D-04 0.982D-04-0.179D-03-0.100D-02 0.152D-02
 Coeff:      0.325D-01-0.264D+00 0.123D+01
 Gap=     0.660 Goal=   None    Shift=    0.000
 RMSDP=1.71D-08 MaxDP=6.56D-07 DE=-5.39D-10 OVMax= 1.50D-06

 Cycle  10  Pass 1  IDiag  1:
 E= -95.6192435441739     Delta-E=       -0.000000000007 Rises=F Damp=F
 DIIS: error= 1.53D-08 at cycle  10 NSaved=  10.
 NSaved=10 IEnMin=10 EnMin= -95.6192435441739     IErMin=10 ErrMin= 1.53D-08
 ErrMax= 1.53D-08  0.00D+00 EMaxC= 1.00D-01 BMatC= 2.00D-14 BMatP= 3.53D-12
 IDIUse=1 WtCom= 1.00D+00 WtEn= 0.00D+00
 Coeff-Com: -0.932D-07 0.248D-06-0.991D-07 0.205D-04 0.441D-05-0.447D-03
 Coeff-Com: -0.482D-03 0.167D-01-0.144D+00 0.113D+01
 Coeff:     -0.932D-07 0.248D-06-0.991D-07 0.205D-04 0.441D-05-0.447D-03
 Coeff:     -0.482D-03 0.167D-01-0.144D+00 0.113D+01
 Gap=     0.660 Goal=   None    Shift=    0.000
 RMSDP=1.01D-09 MaxDP=4.37D-08 DE=-7.42D-12 OVMax= 9.91D-08

 SCF Done:  E(RHF) =  -95.6192435442     A.U. after   10 cycles
            NFock= 10  Conv=0.10D-08     -V/T= 2.0005
 KE= 9.557534064911D+01 PE=-3.141437035755D+02 EE= 7.473577642668D+01
 Leave Link  502 at Tue Sep 30 16:58:57 2025, MaxMem=  4294967296 cpu:              41.3 elap:               3.6
 (Enter /software/sse/easybuild/prefix/software/Gaussian/16.C.01-avx2-nsc1/g16/l801.exe)
 ExpMin= 2.53D-02 ExpMax= 1.14D+04 ExpMxC= 3.89D+02 IAcc=3 IRadAn=         5 AccDes= 0.00D+00
 HarFok:  IExCor=  205 AccDes= 0.00D+00 IRadAn=         5 IDoV=-2 UseB2=F ITyADJ=14
 ICtDFT= 12500011 ScaDFX=  1.000000  1.000000  1.000000  1.000000
 Largest valence mixing into a core orbital is  1.73D-04
 Largest core mixing into a valence orbital is  2.43D-05
 Range of M.O.s used for correlation:     3   230
 NBasis=   230 NAE=     9 NBE=     9 NFC=     2 NFV=     0
 NROrb=    228 NOA=     7 NOB=     7 NVA=   221 NVB=   221

 **** Warning!!: The largest alpha MO coefficient is  0.53194691D+02

 Leave Link  801 at Tue Sep 30 16:58:57 2025, MaxMem=  4294967296 cpu:               0.7 elap:               0.1
 (Enter /software/sse/easybuild/prefix/software/Gaussian/16.C.01-avx2-nsc1/g16/l906.exe)
 Frozen-core derivative calculation, NFC=   2 NFV=   0.
 FulOut=F Deriv=T AODrv=T NAtomX=     8
   MMem=          42  MDisk=           7 MDiskD=           7
  W3Min=      538200 MinDsk=     1235470 NBas6D=         260
 NBas2D=       34458    NTT=       33930    LW2=     3500000
    MDV=  4294318322 MDiskM=       82544 NBas2p=       23958
 Fully direct method using O(ONN) memory.
 IMap=   1   2   3   4   5   6   7   8   9
 JobTyp=1 Pass  1:  I=   3 to   9 NPSUse= 16 ParTrn=T ParDer=T DoDerP=T.
 Spin components of T(2) and E(2):
     alpha-alpha T2 =       0.1205348009D-01 E2=     -0.4200823389D-01
     alpha-beta  T2 =       0.8445737813D-01 E2=     -0.3169780236D+00
     beta-beta   T2 =       0.1205348009D-01 E2=     -0.4200823389D-01
 The integrals were generated   1 times.
 ANorm=    0.1052883820D+01
 E2 =    -0.4009944914D+00 EUMP2 =    -0.96020238035559D+02
 Leave Link  906 at Tue Sep 30 16:59:09 2025, MaxMem=  4294967296 cpu:             192.0 elap:              12.1
 (Enter /software/sse/easybuild/prefix/software/Gaussian/16.C.01-avx2-nsc1/g16/l1002.exe)
 Minotr:  Closed shell wavefunction.
          Computing MP2/KS-MP2 derivatives.
          Using Z-Vector for PSCF gradient.
          Skipping F1 and S1 gradient terms here.
          IDoAtm=11111111
          Frozen-core window.
          Direct CPHF calculation.
          Differentiating once with respect to electric field.
                with respect to dipole field.
          Differentiating once with respect to nuclear coordinates.
          Using symmetry in CPHF.
          Requested convergence is 1.0D-10 RMS, and 1.0D-09 maximum.
          NewPWx=F KeepS1=T KeepF1=T KeepIn=T MapXYZ=F SortEE=F KeepMc=T.
 Keep R1 ints in memory in symmetry-blocked form, NReq=529704255.
 FoFCou: FMM=F IPFlag=           0 FMFlag=           0 FMFlg1=           0
         NFxFlg=           0 DoJE=F BraDBF=F KetDBF=F FulRan=T
         wScrn=  0.000000 ICntrl=       600 IOpCl=  0 I1Cent=           0 NGrid=           0
         NMat0=    1 NMatS0=  26565 NMatT0=    0 NMatD0=    1 NMtDS0=    0 NMtDT0=    0
 Petite list used in FoFCou.
          MDV=    4294967296 using IRadAn=       5.
          Solving linear equations separately, MaxMat=       0.
          There are     1 degrees of freedom in the 1st order CPHF.  IDoFFX=0 NUNeed=     1.
 LinEq1:  Iter=  0 NonCon=     1 RMS=1.94D-03 Max=2.07D-02 NDo=     1
 AX will form     1 AO Fock derivatives at one time.
 LinEq1:  Iter=  1 NonCon=     1 RMS=6.20D-04 Max=6.69D-03 NDo=     1
 LinEq1:  Iter=  2 NonCon=     1 RMS=1.47D-04 Max=1.36D-03 NDo=     1
 LinEq1:  Iter=  3 NonCon=     1 RMS=3.64D-05 Max=6.71D-04 NDo=     1
 LinEq1:  Iter=  4 NonCon=     1 RMS=9.55D-06 Max=7.00D-05 NDo=     1
 LinEq1:  Iter=  5 NonCon=     1 RMS=2.07D-06 Max=3.00D-05 NDo=     1
 LinEq1:  Iter=  6 NonCon=     1 RMS=3.35D-07 Max=2.98D-06 NDo=     1
 LinEq1:  Iter=  7 NonCon=     1 RMS=3.14D-08 Max=3.00D-07 NDo=     1
 LinEq1:  Iter=  8 NonCon=     1 RMS=2.98D-09 Max=2.67D-08 NDo=     1
 LinEq1:  Iter=  9 NonCon=     1 RMS=3.42D-10 Max=4.25D-09 NDo=     1
 LinEq1:  Iter= 10 NonCon=     0 RMS=4.03D-11 Max=5.59D-10 NDo=     1
 Linear equations converged to 1.000D-10 1.000D-09 after    10 iterations.
 End of Minotr F.D. properties file   721 does not exist.
 End of Minotr F.D. properties file   722 does not exist.
 End of Minotr F.D. properties file   788 does not exist.
 Leave Link 1002 at Tue Sep 30 16:59:14 2025, MaxMem=  4294967296 cpu:              43.7 elap:               4.8
 (Enter /software/sse/easybuild/prefix/software/Gaussian/16.C.01-avx2-nsc1/g16/l601.exe)
 Copying SCF densities to generalized density rwf, IOpCl= 0 IROHF=0.
 SCF density gives NOpUse=  2 NOpAll=  2.

 **********************************************************************

            Population analysis using the MP2 Density.

 **********************************************************************

 Orbital symmetries:
 BldTbl:  Degeneracy threshold= 1.00D-02
       Occupied  (A') (A') (A') (A') (A") (A') (A') (A") (A')
       Virtual   (A') (A") (A') (A') (A') (A") (A') (A') (A") (A')
                 (A") (A') (A') (A') (A") (A') (A') (A") (A') (A")
                 (A') (A') (A") (A') (A') (A") (A") (A') (A') (A')
                 (A") (A') (A") (A') (A") (A') (A") (A') (A') (A")
                 (A') (A') (A") (A') (A") (A') (A") (A') (A') (A')
                 (A') (A") (A') (A") (A') (A') (A") (A") (A') (A')
                 (A") (A") (A') (A') (A") (A') (A') (A") (A') (A")
                 (A') (A") (A') (A") (A') (A') (A") (A') (A') (A")
                 (A") (A') (A') (A") (A') (A") (A') (A") (A') (A')
                 (A") (A') (A') (A") (A') (A") (A') (A') (A") (A")
                 (A') (A") (A') (A') (A") (A') (A") (A') (A") (A')
                 (A') (A') (A') (A") (A') (A") (A") (A') (A") (A')
                 (A") (A') (A") (A') (A') (A") (A') (A') (A') (A")
                 (A") (A') (A') (A") (A') (A') (A") (A') (A') (A')
                 (A") (A") (A") (A') (A') (A") (A') (A') (A') (A")
                 (A") (A') (A') (A') (A") (A") (A') (A") (A") (A')
                 (A") (A') (A') (A") (A") (A') (A") (A') (A') (A")
                 (A') (A') (A') (A") (A") (A') (A") (A') (A') (A')
                 (A') (A") (A") (A') (A") (A') (A") (A') (A') (A')
                 (A") (A") (A') (A') (A") (A') (A") (A') (A") (A')
                 (A") (A') (A') (A") (A') (A") (A') (A") (A') (A")
                 (A') (A') (A") (A') (A') (A') (A") (A') (A") (A')
                 (A')
 The electronic state is 1-A'.
 Alpha  occ. eigenvalues --  -15.90932 -11.48948  -1.53544  -1.18214  -0.99449
 Alpha  occ. eigenvalues --   -0.99449  -0.86859  -0.78723  -0.78723
 Alpha virt. eigenvalues --   -0.12730  -0.08643  -0.08643  -0.08431  -0.04758
 Alpha virt. eigenvalues --   -0.04758  -0.04349  -0.01877  -0.01877  -0.01552
 Alpha virt. eigenvalues --    0.00567   0.00567   0.00752   0.04098   0.04098
 Alpha virt. eigenvalues --    0.04427   0.07566   0.07566   0.09194   0.10848
 Alpha virt. eigenvalues --    0.10848   0.15508   0.15528   0.15872   0.16910
 Alpha virt. eigenvalues --    0.16910   0.20546   0.20546   0.20799   0.23285
 Alpha virt. eigenvalues --    0.23285   0.23909   0.24417   0.25100   0.25100
 Alpha virt. eigenvalues --    0.25456   0.27145   0.27145   0.29839   0.32397
 Alpha virt. eigenvalues --    0.32397   0.33115   0.34210   0.34210   0.39801
 Alpha virt. eigenvalues --    0.39801   0.40871   0.40871   0.42079   0.56609
 Alpha virt. eigenvalues --    0.58809   0.58809   0.59908   0.61906   0.61906
 Alpha virt. eigenvalues --    0.64045   0.65095   0.68160   0.68160   0.71976
 Alpha virt. eigenvalues --    0.72877   0.73039   0.73039   0.73632   0.74515
 Alpha virt. eigenvalues --    0.74515   0.78547   0.78547   0.80801   0.81504
 Alpha virt. eigenvalues --    0.88454   0.88454   0.88771   0.88771   0.89404
 Alpha virt. eigenvalues --    0.95308   0.95308   0.95849   0.98006   0.98006
 Alpha virt. eigenvalues --    1.01722   1.01722   1.05429   1.05429   1.06589
 Alpha virt. eigenvalues --    1.09105   1.09106   1.12226   1.12741   1.14311
 Alpha virt. eigenvalues --    1.14311   1.27293   1.27764   1.27764   1.35349
 Alpha virt. eigenvalues --    1.35349   1.35791   1.40519   1.40519   1.43162
 Alpha virt. eigenvalues --    1.43628   1.45702   1.45703   1.50755   1.51267
 Alpha virt. eigenvalues --    1.57411   1.58625   1.58625   1.63518   1.63518
 Alpha virt. eigenvalues --    1.71296   1.78472   1.79027   1.79027   1.79340
 Alpha virt. eigenvalues --    1.79340   1.83210   1.86131   1.86131   1.92895
 Alpha virt. eigenvalues --    1.99823   1.99823   2.01402   2.01402   2.10651
 Alpha virt. eigenvalues --    2.19099   2.19099   2.21944   2.27126   2.27126
 Alpha virt. eigenvalues --    2.33829   2.35016   2.41829   2.41829   2.73158
 Alpha virt. eigenvalues --    2.96587   3.12777   3.12777   3.20879   3.36021
 Alpha virt. eigenvalues --    3.36021   3.40247   3.40402   3.40402   3.51432
 Alpha virt. eigenvalues --    3.51432   3.53261   3.61683   3.69708   3.69708
 Alpha virt. eigenvalues --    3.76158   3.76158   3.83341   3.84775   3.84775
 Alpha virt. eigenvalues --    3.85682   3.90339   3.90340   3.91188   3.98236
 Alpha virt. eigenvalues --    3.98236   4.08788   4.09942   4.09942   4.17012
 Alpha virt. eigenvalues --    4.21058   4.21059   4.30091   4.30725   4.33104
 Alpha virt. eigenvalues --    4.33104   4.41024   4.42952   4.42952   4.50156
 Alpha virt. eigenvalues --    4.50156   4.57542   4.57542   4.62895   4.66587
 Alpha virt. eigenvalues --    4.69493   4.69493   4.72667   4.78544   4.78544
 Alpha virt. eigenvalues --    4.84499   4.84500   4.86316   4.97089   4.98542
 Alpha virt. eigenvalues --    4.98542   5.03465   5.21961   5.25786   5.25786
 Alpha virt. eigenvalues --    5.31136   5.53162   5.53163   5.58318   5.58318
 Alpha virt. eigenvalues --    5.59713   5.65496   5.82089   5.82089   5.89221
 Alpha virt. eigenvalues --    5.89222   5.94886   6.17943   6.24627   6.24628
 Alpha virt. eigenvalues --    6.30052   6.47140   6.47140   6.52597   6.64765
 Alpha virt. eigenvalues --    6.91822   6.91822   7.55527   7.55527  17.69754
 Alpha virt. eigenvalues --   19.12383
          Condensed to atoms (all electrons):
               1          2          3          4          5          6
     1  N    5.863575   0.015856   0.317960   0.317961   0.317961   0.008582
     2  C    0.015856   6.203277  -0.007226  -0.007225  -0.007225   0.203077
     3  H    0.317960  -0.007226   0.609509  -0.041963  -0.041963   0.001495
     4  H    0.317961  -0.007225  -0.041963   0.609513  -0.041964   0.001494
     5  H    0.317961  -0.007225  -0.041963  -0.041964   0.609513  -0.004482
     6  H    0.008582   0.203077   0.001495   0.001494  -0.004482   0.404011
     7  H    0.008582   0.203077   0.001495  -0.004482   0.001494  -0.002126
     8  H    0.008582   0.203077  -0.004483   0.001494   0.001494  -0.002126
               7          8
     1  N    0.008582   0.008582
     2  C    0.203077   0.203077
     3  H    0.001495  -0.004483
     4  H   -0.004482   0.001494
     5  H    0.001494   0.001494
     6  H   -0.002126  -0.002126
     7  H    0.404011  -0.002126
     8  H   -0.002126   0.404010
 Mulliken charges:
               1
     1  N    0.140941
     2  C   -0.806688
     3  H    0.165176
     4  H    0.165172
     5  H    0.165172
     6  H    0.390075
     7  H    0.390075
     8  H    0.390076
 Sum of Mulliken charges =   1.00000
 Mulliken charges with hydrogens summed into heavy atoms:
               1
     1  N    0.636461
     2  C    0.363539
 DipInt: DoE/N= T F RetVal/Mat= T F Init=T NMatP=  1 IDeriv=0 Min/MaxMlt=  0  4
 Entering OneElI...
 OneElI was handed  4294792201 working-precision words.
 Multipole integrals L=0 to 4 MinM= 0 MaxM= 0.
 Requested accuracy = 0.1000D-12
 ShPair: Thresh= 1.00D-13 NBox=     0 BxSize= 0.00D+00 RnKept= 5.58D+00
         NSMCal=                 3403 NSMKep=                3403
 PrmmSu-InSpLW:  IPartL=    0 NPrtUS=    1 NPrtUL=    1 DoSpLW=F IThBeg=    0 IThEnd=    0 NThAct=    1.
 PrSmSu:  IncTry=   512 NBBP=           3403 NTPThr=   100 NPartT=    1 Incr=          34 LDynOK=F GPUOK=F.
 PrsmSu:  NPrtUS=   1 ThrOK=F IAlg=2 LenDen=           0 ISkipM=0 DoSpLW=F IThBeg=    0 IThEnd=    0.
 Prism:   IPart=     0 DynPar=F LinDyn=F Incr=          34.
 PRISM was handed  4294575181 working-precision words and  3403 shell-pairs
 IPart=  0 NShTot=        3403 NBatch=          54 AvBLen=        63.0
 PrsmSu-ThDecC:  IPartSL=    0    0 NPrtUSL=    1    1 IThBeg=    0 IThEnd=    0 CPU=   -1 GPU=   -1 NThAct=    1.
 PrSmSu:  NxtVal=             35.
 Electronic moments (au):
        -18.00000000          0.00000438          0.84690537          0.00000000
        -17.94155314        -57.30125817        -17.94153747         -0.00002772
         -0.00000000         -0.00000000          1.78386242         15.83113748
          0.00000000          0.00000054          5.98068352          0.00000000
         -1.78386096          5.98062839          0.00000000         -0.00000000
        -73.95840420       -330.13897380        -73.95816106        -12.84510262
          0.00000000         -0.00019368         -0.00000000          0.00000000
         -0.00000000        -73.70798618        -24.65272511        -73.70790049
         -0.00000000          0.00000000         12.84482509
 Electronic spatial extent (au):  <R**2>=             93.1843
 DipInt: DoE/N= F T RetVal/Mat= T F Init=T NMatP=  1 IDeriv=0 Min/MaxMlt=  0  4
 Nuclear    moments (au):
         19.00000000          0.00000000         -0.00000000          0.00000000
         10.32833645         52.16458987         10.32832221          0.00003836
         -0.00000000         -0.00000000         -1.24283711         -7.99752741
          0.00000000          0.00002597         -2.42628045          0.00000000
          1.24287213         -2.42618482          0.00000000          0.00000000
         26.86829245        166.76551859         26.86808822         20.09586372
         -0.00000000          0.00016596         -0.00000000         -0.00000000
         -0.00000000         45.10376772          8.95598989         45.10369544
         -0.00000000         -0.00000000        -20.09557915
 Total      moments (au):
          1.00000000          0.00000438          0.84690537          0.00000000
         -7.61321669         -5.13666830         -7.61321526          0.00001063
         -0.00000000         -0.00000000          0.54102531          7.83361008
          0.00000000          0.00002650          3.55440307          0.00000000
         -0.54098883          3.55444357          0.00000000         -0.00000000
        -47.09011175       -163.37345522        -47.09007283          7.25076110
          0.00000000         -0.00002771         -0.00000000          0.00000000
         -0.00000000        -28.60421846        -15.69673523        -28.60420506
         -0.00000000          0.00000000         -7.25075406
 Traceless Quadrup. (au):
         -0.82551660          1.65103178         -0.82551518          0.00001063
         -0.00000000         -0.00000000
 Charge=              1.0000 electrons
 Dipole moment (field-independent basis, Debye):
    X=              0.0000    Y=              2.1526    Z=              0.0000  Tot=              2.1526
 Quadrupole moment (field-independent basis, Debye-Ang):
   XX=            -10.2400   YY=             -6.9090   ZZ=            -10.2400
   XY=              0.0000   XZ=             -0.0000   YZ=             -0.0000
 Traceless Quadrupole moment (field-independent basis, Debye-Ang):
   XX=             -1.1103   YY=              2.2207   ZZ=             -1.1103
   XY=              0.0000   XZ=             -0.0000   YZ=             -0.0000
 Octapole moment (field-independent basis, Debye-Ang**2):
  XXX=              0.3851  YYY=              5.5757  ZZZ=              0.0000  XYY=              0.0000
  XXY=              2.5299  XXZ=              0.0000  XZZ=             -0.3851  YZZ=              2.5299
  YYZ=              0.0000  XYZ=             -0.0000
 Hexadecapole moment (field-independent basis, Debye-Ang**3):
 XXXX=            -17.7364 YYYY=            -61.5343 ZZZZ=            -17.7364 XXXY=              2.7310
 XXXZ=              0.0000 YYYX=             -0.0000 YYYZ=             -0.0000 ZZZX=              0.0000
 ZZZY=             -0.0000 XXYY=            -10.7737 XXZZ=             -5.9121 YYZZ=            -10.7737
 XXYZ=             -0.0000 YYXZ=              0.0000 ZZXY=             -2.7310
 N-N= 4.821334295557D+01 E-N=-3.144175489833D+02  KE= 9.602694131639D+01
 Symmetry A'   KE= 9.094983625854D+01
 Symmetry A"   KE= 5.077105057849D+00
 SetAtRh:  ITypeU=  23 NETotI=      -1 ICharg=  0 NETot=      19.
 StAtR1:  I=    1 I1=    1 IA=  7 C=   7.0 OKShel=TTT
                                                  SSP
                                                  223
 StAtR1:  I=    2 I1=    2 IA=  6 C=   6.0 OKShel=TTT
                                                  SSP
                                                  222
 StAtR1:  I=    3 I1=    3 IA=  1 C=   1.0 OKShel=T
                                                  S
                                                  1
 StAtR1:  I=    4 I1=    4 IA=  1 C=   1.0 OKShel=T
                                                  S
                                                  1
 StAtR1:  I=    5 I1=    5 IA=  1 C=   1.0 OKShel=T
                                                  S
                                                  1
 StAtR1:  I=    6 I1=    6 IA=  1 C=   1.0 OKShel=T
                                                  S
                                                  1
 StAtR1:  I=    7 I1=    7 IA=  1 C=   1.0 OKShel=T
                                                  S
                                                  1
 StAtR1:  I=    8 I1=    8 IA=  1 C=   1.0 OKShel=T
                                                  S
                                                  1
          I=    1 IA=  7 I1=    1 NAtG=22 NE=   7.000 C=   7.000 Err= 6.08D-13
          I=    2 IA=  6 I1=    2 NAtG=23 NE=   6.000 C=   6.000 Err= 1.75D-11
          I=    3 IA=  1 I1=    3 NAtG=20 NE=   1.000 C=   1.000 Err= 2.80D-12
          I=    4 IA=  1 I1=    4 NAtG=20 NE=   1.000 C=   1.000 Err= 2.80D-12
          I=    5 IA=  1 I1=    5 NAtG=20 NE=   1.000 C=   1.000 Err= 2.80D-12
          I=    6 IA=  1 I1=    6 NAtG=20 NE=   1.000 C=   1.000 Err= 2.80D-12
          I=    7 IA=  1 I1=    7 NAtG=20 NE=   1.000 C=   1.000 Err= 2.80D-12
          I=    8 IA=  1 I1=    8 NAtG=20 NE=   1.000 C=   1.000 Err= 2.80D-12
 Pruned (  99, 590) grid will be used in numerical quadrature.
 IPart=  0 IRanGd=          0 ScrnBf=T ScrnGd=T RCrit=4.00D+00 DoMicB=T.
 CutRad = 1000.00    CtRdIn =    0.00    XCrit =  15.00   ICut = 0
 Pruned (  99, 590) grid will be used in numerical quadrature.
 IPart=  0 Atom number   1 atomic number  7 has       23416 grid points.
 Pruned (  99, 590) grid will be used in numerical quadrature.
 Pruned (  99, 590) grid will be used in numerical quadrature.
 IPart=  1 IRanGd=          0 ScrnBf=T ScrnGd=T RCrit=4.00D+00 DoMicB=T.
 IPart=  0 Atom   1 batch    1 overlaps    8 atoms,    82 shells and     8 DB shells.   NGrid=      2408
 CutRad = 1000.00    CtRdIn =    0.00    XCrit =  15.00   ICut = 0
 Pruned (  99, 590) grid will be used in numerical quadrature.
 IPart= 12 IRanGd=          0 ScrnBf=T ScrnGd=T RCrit=4.00D+00 DoMicB=T.
 Pruned (  99, 590) grid will be used in numerical quadrature.
 Symmetry reduced    86 angular points to    86 for atom    1.
 CutRad = 1000.00    CtRdIn =    0.00    XCrit =  15.00   ICut = 0
 IPart=  5 IRanGd=          0 ScrnBf=T ScrnGd=T RCrit=4.00D+00 DoMicB=T.
 CutRad = 1000.00    CtRdIn =    0.00    XCrit =  15.00   ICut = 0
 IPart= 13 IRanGd=          0 ScrnBf=T ScrnGd=T RCrit=4.00D+00 DoMicB=T.
 Pruned (  99, 590) grid will be used in numerical quadrature.
 Pruned (  99, 590) grid will be used in numerical quadrature.
 IPart= 15 IRanGd=          0 ScrnBf=T ScrnGd=T RCrit=4.00D+00 DoMicB=T.
 CutRad = 1000.00    CtRdIn =    0.00    XCrit =  15.00   ICut = 0
 IPart=  4 IRanGd=          0 ScrnBf=T ScrnGd=T RCrit=4.00D+00 DoMicB=T.
 Pruned (  99, 590) grid will be used in numerical quadrature.
 Pruned (  99, 590) grid will be used in numerical quadrature.
 IPart=  3 IRanGd=          0 ScrnBf=T ScrnGd=T RCrit=4.00D+00 DoMicB=T.
 CutRad = 1000.00    CtRdIn =    0.00    XCrit =  15.00   ICut = 0
 Pruned (  99, 590) grid will be used in numerical quadrature.
 Pruned (  99, 590) grid will be used in numerical quadrature.
 Pruned (  99, 590) grid will be used in numerical quadrature.
 IPart=  9 IRanGd=          0 ScrnBf=T ScrnGd=T RCrit=4.00D+00 DoMicB=T.
 Pruned (  99, 590) grid will be used in numerical quadrature.
 IPart= 11 IRanGd=          0 ScrnBf=T ScrnGd=T RCrit=4.00D+00 DoMicB=T.
 CutRad = 1000.00    CtRdIn =    0.00    XCrit =  15.00   ICut = 0
 CutRad = 1000.00    CtRdIn =    0.00    XCrit =  15.00   ICut = 0
 IPart=  6 IRanGd=          0 ScrnBf=T ScrnGd=T RCrit=4.00D+00 DoMicB=T.
 IPart=  7 IRanGd=          0 ScrnBf=T ScrnGd=T RCrit=4.00D+00 DoMicB=T.
 IPart= 10 IRanGd=          0 ScrnBf=T ScrnGd=T RCrit=4.00D+00 DoMicB=T.
 CutRad = 1000.00    CtRdIn =    0.00    XCrit =  15.00   ICut = 0
 CutRad = 1000.00    CtRdIn =    0.00    XCrit =  15.00   ICut = 0
 CutRad = 1000.00    CtRdIn =    0.00    XCrit =  15.00   ICut = 0
 CutRad = 1000.00    CtRdIn =    0.00    XCrit =  15.00   ICut = 0
 Pruned (  99, 590) grid will be used in numerical quadrature.
 Pruned (  99, 590) grid will be used in numerical quadrature.
 Pruned (  99, 590) grid will be used in numerical quadrature.
 IPart=  2 IRanGd=          0 ScrnBf=T ScrnGd=T RCrit=4.00D+00 DoMicB=T.
 IPart=  1 Atom number   1 atomic number  7 has       23416 grid points.
 CutRad = 1000.00    CtRdIn =    0.00    XCrit =  15.00   ICut = 0
 IPart= 14 IRanGd=          0 ScrnBf=T ScrnGd=T RCrit=4.00D+00 DoMicB=T.
 CutRad = 1000.00    CtRdIn =    0.00    XCrit =  15.00   ICut = 0
 Pruned (  99, 590) grid will be used in numerical quadrature.
 Pruned (  99, 590) grid will be used in numerical quadrature.
 IPart= 12 Atom number   1 atomic number  7 has       23416 grid points.
 IPart=  5 Atom number   1 atomic number  7 has       23416 grid points.
 IPart=  1 Atom   1 batch    2 overlaps    8 atoms,    82 shells and     8 DB shells.   NGrid=      2522
 IPart=  5 Atom   1 batch    4 overlaps    8 atoms,    82 shells and     8 DB shells.   NGrid=      1180
 CutRad = 1000.00    CtRdIn =    0.00    XCrit =  15.00   ICut = 0
 Symmetry reduced   194 angular points to   194 for atom    1.
 Symmetry reduced   590 angular points to   590 for atom    1.
 IPart= 12 Atom   1 batch    3 overlaps    8 atoms,    82 shells and     8 DB shells.   NGrid=      2114
 Pruned (  99, 590) grid will be used in numerical quadrature.
 Symmetry reduced   302 angular points to   302 for atom    1.
 IPart= 15 Atom number   1 atomic number  7 has       23416 grid points.
 Pruned (  99, 590) grid will be used in numerical quadrature.
 IPart= 15 Atom   1 batch    5 overlaps    8 atoms,    82 shells and     8 DB shells.   NGrid=      1180
 Pruned (  99, 590) grid will be used in numerical quadrature.
 IPart=  8 IRanGd=          0 ScrnBf=T ScrnGd=T RCrit=4.00D+00 DoMicB=T.
 IPart=  3 Atom number   1 atomic number  7 has       23416 grid points.
 CutRad = 1000.00    CtRdIn =    0.00    XCrit =  15.00   ICut = 0
 IPart=  3 Atom   1 batch    6 overlaps    8 atoms,    82 shells and     8 DB shells.   NGrid=      1180
 Symmetry reduced   590 angular points to   590 for atom    1.
 Symmetry reduced   590 angular points to   590 for atom    1.
 Pruned (  99, 590) grid will be used in numerical quadrature.
 IPart= 11 Atom number   1 atomic number  7 has       23416 grid points.
 Pruned (  99, 590) grid will be used in numerical quadrature.
 IPart= 11 Atom   1 batch    7 overlaps    8 atoms,    82 shells and     8 DB shells.   NGrid=      1180
 IPart=  4 Atom number   1 atomic number  7 has       23416 grid points.
 Symmetry reduced   590 angular points to   590 for atom    1.
 IPart=  4 Atom   1 batch    8 overlaps    8 atoms,    82 shells and     8 DB shells.   NGrid=      1180
 Pruned (  99, 590) grid will be used in numerical quadrature.
 Symmetry reduced   590 angular points to   590 for atom    1.
 Pruned (  99, 590) grid will be used in numerical quadrature.
 IPart=  7 Atom number   1 atomic number  7 has       23416 grid points.
 IPart= 10 Atom number   1 atomic number  7 has       23416 grid points.
 Pruned (  99, 590) grid will be used in numerical quadrature.
 IPart= 10 Atom   1 batch   11 overlaps    8 atoms,    82 shells and     8 DB shells.   NGrid=      1180
 IPart= 13 Atom number   1 atomic number  7 has       23416 grid points.
 IPart=  7 Atom   1 batch    9 overlaps    8 atoms,    82 shells and     8 DB shells.   NGrid=      1180
 Symmetry reduced   590 angular points to   590 for atom    1.
 IPart= 13 Atom   1 batch   10 overlaps    8 atoms,    82 shells and     8 DB shells.   NGrid=      1180
 Symmetry reduced   590 angular points to   590 for atom    1.
 Pruned (  99, 590) grid will be used in numerical quadrature.
 Pruned (  99, 590) grid will be used in numerical quadrature.
 Symmetry reduced   590 angular points to   590 for atom    1.
 IPart=  9 Atom number   1 atomic number  7 has       23416 grid points.
 IPart=  2 Atom number   1 atomic number  7 has       23416 grid points.
 IPart=  9 Atom   1 batch   14 overlaps    8 atoms,    81 shells and     8 DB shells.   NGrid=       604
 IPart=  2 Atom   1 batch   13 overlaps    8 atoms,    81 shells and     8 DB shells.   NGrid=       604
 Symmetry reduced   302 angular points to   302 for atom    1.
 Pruned (  99, 590) grid will be used in numerical quadrature.
 Symmetry reduced   302 angular points to   302 for atom    1.
 IPart= 14 Atom number   1 atomic number  7 has       23416 grid points.
 Pruned (  99, 590) grid will be used in numerical quadrature.
 IPart= 14 Atom   1 batch   15 overlaps    8 atoms,    79 shells and     8 DB shells.   NGrid=       604
 IPart=  6 Atom number   1 atomic number  7 has       23416 grid points.
 Symmetry reduced   302 angular points to   302 for atom    1.
 IPart=  6 Atom   1 batch   12 overlaps    8 atoms,    81 shells and     8 DB shells.   NGrid=       590
 Symmetry reduced   590 angular points to   590 for atom    1.
 Pruned (  99, 590) grid will be used in numerical quadrature.
 IPart=  8 Atom number   1 atomic number  7 has       23416 grid points.
 IPart=  8 Atom   1 batch   16 overlaps    8 atoms,    76 shells and     8 DB shells.   NGrid=       604
 Symmetry reduced   302 angular points to   302 for atom    1.
 IPart=  8 Atom   1 batch   17 overlaps    8 atoms,    70 shells and     8 DB shells.   NGrid=       604
 IPart= 14 Atom   1 batch   18 overlaps    8 atoms,    55 shells and     8 DB shells.   NGrid=       604
 IPart=  9 Atom   1 batch   19 overlaps    8 atoms,    44 shells and     8 DB shells.   NGrid=       604
 IPart=  6 Atom   1 batch   20 overlaps    8 atoms,    28 shells and     7 DB shells.   NGrid=       604
 IPart=  2 Atom   1 batch   21 overlaps    8 atoms,    17 shells and     3 DB shells.   NGrid=       604
 Symmetry reduced   302 angular points to   302 for atom    1.
 IPart=  2 Atom   1 batch   22 overlaps    8 atoms,     8 shells and     0 DB shells.   NGrid=       604
 IPart=  6 Atom   1 batch   23 overlaps    8 atoms,     3 shells and     0 DB shells.   NGrid=       302
 Pruned (  99, 590) grid will be used in numerical quadrature.
 IPart=  6 Atom number   2 atomic number  6 has       23114 grid points.
 IPart=  6 Atom   2 batch    1 overlaps    8 atoms,    82 shells and     8 DB shells.   NGrid=      2408
 Symmetry reduced    86 angular points to    86 for atom    2.
 Pruned (  99, 590) grid will be used in numerical quadrature.
 IPart= 14 Atom number   2 atomic number  6 has       23114 grid points.
 IPart= 14 Atom   2 batch    2 overlaps    8 atoms,    82 shells and     8 DB shells.   NGrid=      2522
 Pruned (  99, 590) grid will be used in numerical quadrature.
 Symmetry reduced   194 angular points to   194 for atom    2.
 IPart=  9 Atom number   2 atomic number  6 has       23114 grid points.
 IPart=  9 Atom   2 batch    3 overlaps    8 atoms,    82 shells and     8 DB shells.   NGrid=      2114
 Symmetry reduced   302 angular points to   302 for atom    2.
 Pruned (  99, 590) grid will be used in numerical quadrature.
 IPart=  2 Atom number   2 atomic number  6 has       23114 grid points.
 IPart=  2 Atom   2 batch    4 overlaps    8 atoms,    82 shells and     8 DB shells.   NGrid=      1180
 Symmetry reduced   590 angular points to   590 for atom    2.
 Pruned (  99, 590) grid will be used in numerical quadrature.
 IPart=  8 Atom number   2 atomic number  6 has       23114 grid points.
 IPart=  8 Atom   2 batch    5 overlaps    8 atoms,    82 shells and     8 DB shells.   NGrid=      1180
 Symmetry reduced   590 angular points to   590 for atom    2.
 Pruned (  99, 590) grid will be used in numerical quadrature.
 IPart= 10 Atom number   2 atomic number  6 has       23114 grid points.
 IPart= 10 Atom   2 batch    6 overlaps    8 atoms,    82 shells and     8 DB shells.   NGrid=      1180
 Symmetry reduced   590 angular points to   590 for atom    2.
 Pruned (  99, 590) grid will be used in numerical quadrature.
 IPart=  7 Atom number   2 atomic number  6 has       23114 grid points.
 IPart=  7 Atom   2 batch    7 overlaps    8 atoms,    82 shells and     8 DB shells.   NGrid=      1180
 Symmetry reduced   590 angular points to   590 for atom    2.
 Pruned (  99, 590) grid will be used in numerical quadrature.
 Pruned (  99, 590) grid will be used in numerical quadrature.
 IPart= 15 Atom number   2 atomic number  6 has       23114 grid points.
 IPart=  3 Atom number   2 atomic number  6 has       23114 grid points.
 IPart= 15 Atom   2 batch    8 overlaps    8 atoms,    82 shells and     8 DB shells.   NGrid=      1180
 IPart=  3 Atom   2 batch    9 overlaps    8 atoms,    82 shells and     8 DB shells.   NGrid=      1180
 Pruned (  99, 590) grid will be used in numerical quadrature.
 Symmetry reduced   590 angular points to   590 for atom    2.
 IPart=  4 Atom number   2 atomic number  6 has       23114 grid points.
 Symmetry reduced   590 angular points to   590 for atom    2.
 Pruned (  99, 590) grid will be used in numerical quadrature.
 IPart=  4 Atom   2 batch   10 overlaps    8 atoms,    82 shells and     8 DB shells.   NGrid=      1180
 IPart= 11 Atom number   2 atomic number  6 has       23114 grid points.
 Symmetry reduced   590 angular points to   590 for atom    2.
 IPart= 11 Atom   2 batch   11 overlaps    8 atoms,    81 shells and     8 DB shells.   NGrid=      1180
 Symmetry reduced   590 angular points to   590 for atom    2.
 Pruned (  99, 590) grid will be used in numerical quadrature.
 Pruned (  99, 590) grid will be used in numerical quadrature.
 IPart=  5 Atom number   2 atomic number  6 has       23114 grid points.
 IPart= 13 Atom number   2 atomic number  6 has       23114 grid points.
 IPart=  5 Atom   2 batch   12 overlaps    8 atoms,    81 shells and     8 DB shells.   NGrid=       590
 IPart= 13 Atom   2 batch   13 overlaps    8 atoms,    81 shells and     8 DB shells.   NGrid=       604
 Symmetry reduced   590 angular points to   590 for atom    2.
 Symmetry reduced   302 angular points to   302 for atom    2.
 IPart=  5 Atom   2 batch   14 overlaps    8 atoms,    81 shells and     8 DB shells.   NGrid=       604
 Symmetry reduced   302 angular points to   302 for atom    2.
 IPart= 13 Atom   2 batch   15 overlaps    8 atoms,    77 shells and     8 DB shells.   NGrid=       604
 IPart=  2 Atom   2 batch   16 overlaps    8 atoms,    68 shells and     8 DB shells.   NGrid=       604
 Symmetry reduced   302 angular points to   302 for atom    2.
 IPart=  8 Atom   2 batch   17 overlaps    8 atoms,    57 shells and     8 DB shells.   NGrid=       604
 Symmetry reduced   302 angular points to   302 for atom    2.
 Pruned (  99, 590) grid will be used in numerical quadrature.
 IPart= 12 Atom number   2 atomic number  6 has       23114 grid points.
 IPart= 12 Atom   2 batch   18 overlaps    8 atoms,    46 shells and     8 DB shells.   NGrid=       604
 Symmetry reduced   302 angular points to   302 for atom    2.
 IPart= 11 Atom   2 batch   19 overlaps    8 atoms,    31 shells and     8 DB shells.   NGrid=       604
 Symmetry reduced   302 angular points to   302 for atom    2.
 Pruned (  99, 590) grid will be used in numerical quadrature.
 IPart=  0 Atom number   2 atomic number  6 has       23114 grid points.
 IPart=  0 Atom   2 batch   20 overlaps    8 atoms,    23 shells and     3 DB shells.   NGrid=       604
 Symmetry reduced   302 angular points to   302 for atom    2.
 IPart= 13 Atom   2 batch   21 overlaps    8 atoms,    10 shells and     0 DB shells.   NGrid=       604
 IPart=  5 Atom   2 batch   22 overlaps    8 atoms,     6 shells and     0 DB shells.   NGrid=       604
 Pruned (  99, 590) grid will be used in numerical quadrature.
 Pruned (  99, 590) grid will be used in numerical quadrature.
 IPart= 12 Atom number   3 atomic number  1 has       23164 grid points.
 Pruned (  99, 590) grid will be used in numerical quadrature.
 IPart=  0 Atom number   3 atomic number  1 has       23164 grid points.
 IPart= 11 Atom number   3 atomic number  1 has       23164 grid points.
 IPart=  0 Atom   3 batch    2 overlaps    8 atoms,    82 shells and     8 DB shells.   NGrid=      1552
 IPart= 12 Atom   3 batch    3 overlaps    8 atoms,    82 shells and     8 DB shells.   NGrid=      2416
 IPart= 11 Atom   3 batch    1 overlaps    8 atoms,    81 shells and     8 DB shells.   NGrid=      2838
 Symmetry reduced   194 angular points to   194 for atom    3.
 Symmetry reduced   302 angular points to   302 for atom    3.
 Symmetry reduced    86 angular points to    86 for atom    3.
 Pruned (  99, 590) grid will be used in numerical quadrature.
 IPart= 13 Atom number   3 atomic number  1 has       23164 grid points.
 IPart= 13 Atom   3 batch    4 overlaps    8 atoms,    82 shells and     8 DB shells.   NGrid=      1180
 Symmetry reduced   590 angular points to   590 for atom    3.
 Pruned (  99, 590) grid will be used in numerical quadrature.
 IPart=  8 Atom number   3 atomic number  1 has       23164 grid points.
 IPart=  8 Atom   3 batch    5 overlaps    8 atoms,    82 shells and     8 DB shells.   NGrid=      1180
 Symmetry reduced   590 angular points to   590 for atom    3.
 Pruned (  99, 590) grid will be used in numerical quadrature.
 IPart=  4 Atom number   3 atomic number  1 has       23164 grid points.
 IPart=  4 Atom   3 batch    6 overlaps    8 atoms,    82 shells and     8 DB shells.   NGrid=      1180
 Symmetry reduced   590 angular points to   590 for atom    3.
 Pruned (  99, 590) grid will be used in numerical quadrature.
 Pruned (  99, 590) grid will be used in numerical quadrature.
 IPart=  2 Atom number   3 atomic number  1 has       23164 grid points.
 IPart=  3 Atom number   3 atomic number  1 has       23164 grid points.
 IPart=  2 Atom   3 batch    7 overlaps    8 atoms,    82 shells and     8 DB shells.   NGrid=      1180
 IPart=  3 Atom   3 batch    8 overlaps    8 atoms,    82 shells and     8 DB shells.   NGrid=      1180
 Symmetry reduced   590 angular points to   590 for atom    3.
 Symmetry reduced   590 angular points to   590 for atom    3.
 Pruned (  99, 590) grid will be used in numerical quadrature.
 Pruned (  99, 590) grid will be used in numerical quadrature.
 IPart= 10 Atom number   3 atomic number  1 has       23164 grid points.
 IPart=  5 Atom number   3 atomic number  1 has       23164 grid points.
 IPart= 10 Atom   3 batch    9 overlaps    8 atoms,    82 shells and     8 DB shells.   NGrid=      1180
 IPart=  5 Atom   3 batch   10 overlaps    8 atoms,    82 shells and     8 DB shells.   NGrid=      1180
 Pruned (  99, 590) grid will be used in numerical quadrature.
 Symmetry reduced   590 angular points to   590 for atom    3.
 IPart= 15 Atom number   3 atomic number  1 has       23164 grid points.
 Symmetry reduced   590 angular points to   590 for atom    3.
 IPart= 15 Atom   3 batch   11 overlaps    8 atoms,    82 shells and     8 DB shells.   NGrid=      1180
 Symmetry reduced   590 angular points to   590 for atom    3.
 Pruned (  99, 590) grid will be used in numerical quadrature.
 IPart=  7 Atom number   3 atomic number  1 has       23164 grid points.
 IPart=  7 Atom   3 batch   12 overlaps    8 atoms,    82 shells and     8 DB shells.   NGrid=      1180
 Symmetry reduced   590 angular points to   590 for atom    3.
 Pruned (  99, 590) grid will be used in numerical quadrature.
 IPart=  1 Atom number   2 atomic number  6 has       23114 grid points.
 Pruned (  99, 590) grid will be used in numerical quadrature.
 IPart=  1 Atom number   3 atomic number  1 has       23164 grid points.
 IPart=  1 Atom   3 batch   13 overlaps    8 atoms,    82 shells and     8 DB shells.   NGrid=       604
 Symmetry reduced   302 angular points to   302 for atom    3.
 Pruned (  99, 590) grid will be used in numerical quadrature.
 IPart=  9 Atom number   3 atomic number  1 has       23164 grid points.
 IPart=  9 Atom   3 batch   14 overlaps    8 atoms,    81 shells and     8 DB shells.   NGrid=       604
 Symmetry reduced   302 angular points to   302 for atom    3.
 Pruned (  99, 590) grid will be used in numerical quadrature.
 IPart=  1 Atom   3 batch   16 overlaps    8 atoms,    74 shells and     8 DB shells.   NGrid=       604
 IPart=  6 Atom number   3 atomic number  1 has       23164 grid points.
 IPart=  6 Atom   3 batch   15 overlaps    8 atoms,    78 shells and     8 DB shells.   NGrid=       604
 Symmetry reduced   302 angular points to   302 for atom    3.
 Pruned (  99, 590) grid will be used in numerical quadrature.
 IPart= 14 Atom number   3 atomic number  1 has       23164 grid points.
 IPart= 14 Atom   3 batch   17 overlaps    8 atoms,    66 shells and     8 DB shells.   NGrid=       604
 Symmetry reduced   302 angular points to   302 for atom    3.
 IPart=  9 Atom   3 batch   18 overlaps    8 atoms,    49 shells and     8 DB shells.   NGrid=       604
 IPart=  7 Atom   3 batch   19 overlaps    8 atoms,    32 shells and     7 DB shells.   NGrid=       604
 Symmetry reduced   302 angular points to   302 for atom    3.
 IPart=  1 Atom   3 batch   20 overlaps    8 atoms,    22 shells and     4 DB shells.   NGrid=       604
 IPart= 13 Atom   3 batch   21 overlaps    8 atoms,     9 shells and     0 DB shells.   NGrid=       604
 Symmetry reduced   302 angular points to   302 for atom    3.
 IPart= 15 Atom   3 batch   22 overlaps    8 atoms,     5 shells and     0 DB shells.   NGrid=       302
 Symmetry reduced   302 angular points to   302 for atom    3.
 Pruned (  99, 590) grid will be used in numerical quadrature.
 IPart=  8 Atom number   4 atomic number  1 has       23164 grid points.
 Pruned (  99, 590) grid will be used in numerical quadrature.
 Pruned (  99, 590) grid will be used in numerical quadrature.
 IPart= 10 Atom number   4 atomic number  1 has       23164 grid points.
 IPart=  4 Atom number   4 atomic number  1 has       23164 grid points.
 IPart= 10 Atom   4 batch    3 overlaps    8 atoms,    82 shells and     8 DB shells.   NGrid=      2416
 IPart=  4 Atom   4 batch    2 overlaps    8 atoms,    82 shells and     8 DB shells.   NGrid=      1552
 IPart=  8 Atom   4 batch    1 overlaps    8 atoms,    81 shells and     8 DB shells.   NGrid=      2838
 Symmetry reduced   302 angular points to   302 for atom    4.
 Symmetry reduced   194 angular points to   194 for atom    4.
 Symmetry reduced    86 angular points to    86 for atom    4.
 Pruned (  99, 590) grid will be used in numerical quadrature.
 Pruned (  99, 590) grid will be used in numerical quadrature.
 IPart= 14 Atom number   4 atomic number  1 has       23164 grid points.
 IPart= 15 Atom number   4 atomic number  1 has       23164 grid points.
 IPart= 14 Atom   4 batch    4 overlaps    8 atoms,    82 shells and     8 DB shells.   NGrid=      1180
 IPart= 15 Atom   4 batch    5 overlaps    8 atoms,    82 shells and     8 DB shells.   NGrid=      1180
 Symmetry reduced   590 angular points to   590 for atom    4.
 Symmetry reduced   590 angular points to   590 for atom    4.
 Pruned (  99, 590) grid will be used in numerical quadrature.
 IPart=  1 Atom number   4 atomic number  1 has       23164 grid points.
 IPart=  1 Atom   4 batch    6 overlaps    8 atoms,    82 shells and     8 DB shells.   NGrid=      1180
 Symmetry reduced   590 angular points to   590 for atom    4.
 Pruned (  99, 590) grid will be used in numerical quadrature.
 IPart=  6 Atom number   4 atomic number  1 has       23164 grid points.
 Pruned (  99, 590) grid will be used in numerical quadrature.
 IPart=  6 Atom   4 batch    7 overlaps    8 atoms,    82 shells and     8 DB shells.   NGrid=      1180
 IPart=  3 Atom number   4 atomic number  1 has       23164 grid points.
 Pruned (  99, 590) grid will be used in numerical quadrature.
 Pruned (  99, 590) grid will be used in numerical quadrature.
 Symmetry reduced   590 angular points to   590 for atom    4.
 IPart=  2 Atom number   4 atomic number  1 has       23164 grid points.
 IPart=  7 Atom number   4 atomic number  1 has       23164 grid points.
 IPart=  2 Atom   4 batch   10 overlaps    8 atoms,    82 shells and     8 DB shells.   NGrid=      1180
 IPart=  7 Atom   4 batch    9 overlaps    8 atoms,    82 shells and     8 DB shells.   NGrid=      1180
 IPart=  3 Atom   4 batch    8 overlaps    8 atoms,    82 shells and     8 DB shells.   NGrid=      1180
 Pruned (  99, 590) grid will be used in numerical quadrature.
 Symmetry reduced   590 angular points to   590 for atom    4.
 Symmetry reduced   590 angular points to   590 for atom    4.
 IPart=  5 Atom number   4 atomic number  1 has       23164 grid points.
 Pruned (  99, 590) grid will be used in numerical quadrature.
 IPart=  5 Atom   4 batch   11 overlaps    8 atoms,    82 shells and     8 DB shells.   NGrid=      1180
 IPart=  9 Atom number   4 atomic number  1 has       23164 grid points.
 Symmetry reduced   590 angular points to   590 for atom    4.
 Symmetry reduced   590 angular points to   590 for atom    4.
 IPart=  9 Atom   4 batch   12 overlaps    8 atoms,    82 shells and     8 DB shells.   NGrid=      1180
 Symmetry reduced   590 angular points to   590 for atom    4.
 Pruned (  99, 590) grid will be used in numerical quadrature.
 IPart= 13 Atom number   4 atomic number  1 has       23164 grid points.
 IPart= 13 Atom   4 batch   13 overlaps    8 atoms,    82 shells and     8 DB shells.   NGrid=       604
 Symmetry reduced   302 angular points to   302 for atom    4.
 Pruned (  99, 590) grid will be used in numerical quadrature.
 IPart=  0 Atom number   4 atomic number  1 has       23164 grid points.
 IPart=  0 Atom   4 batch   14 overlaps    8 atoms,    81 shells and     8 DB shells.   NGrid=       604
 Symmetry reduced   302 angular points to   302 for atom    4.
 IPart= 13 Atom   4 batch   15 overlaps    8 atoms,    78 shells and     8 DB shells.   NGrid=       604
 IPart=  0 Atom   4 batch   16 overlaps    8 atoms,    74 shells and     8 DB shells.   NGrid=       604
 IPart= 13 Atom   4 batch   17 overlaps    8 atoms,    66 shells and     8 DB shells.   NGrid=       604
 Pruned (  99, 590) grid will be used in numerical quadrature.
 IPart= 12 Atom number   4 atomic number  1 has       23164 grid points.
 IPart= 12 Atom   4 batch   18 overlaps    8 atoms,    49 shells and     8 DB shells.   NGrid=       604
 Symmetry reduced   302 angular points to   302 for atom    4.
 IPart=  9 Atom   4 batch   19 overlaps    8 atoms,    32 shells and     7 DB shells.   NGrid=       604
 IPart=  0 Atom   4 batch   20 overlaps    8 atoms,    22 shells and     4 DB shells.   NGrid=       604
 Symmetry reduced   302 angular points to   302 for atom    4.
 IPart=  5 Atom   4 batch   21 overlaps    8 atoms,     9 shells and     0 DB shells.   NGrid=       604
 Symmetry reduced   302 angular points to   302 for atom    4.
 IPart= 14 Atom   4 batch   22 overlaps    8 atoms,     5 shells and     0 DB shells.   NGrid=       302
 Symmetry reduced   302 angular points to   302 for atom    4.
 Pruned (  99, 590) grid will be used in numerical quadrature.
 IPart= 15 Atom number   5 atomic number  1 has       23164 grid points.
 IPart= 15 Atom   5 batch    1 overlaps    8 atoms,    81 shells and     8 DB shells.   NGrid=      2838
 Symmetry reduced    86 angular points to    86 for atom    5.
 Pruned (  99, 590) grid will be used in numerical quadrature.
 IPart=  7 Atom number   5 atomic number  1 has       23164 grid points.
 IPart=  7 Atom   5 batch    2 overlaps    8 atoms,    82 shells and     8 DB shells.   NGrid=      1552
 Symmetry reduced   194 angular points to   194 for atom    5.
 Pruned (  99, 590) grid will be used in numerical quadrature.
 IPart=  0 Atom number   5 atomic number  1 has       23164 grid points.
 IPart=  0 Atom   5 batch    3 overlaps    8 atoms,    82 shells and     8 DB shells.   NGrid=      2416
 Pruned (  99, 590) grid will be used in numerical quadrature.
 Symmetry reduced   302 angular points to   302 for atom    5.
 IPart=  1 Atom number   5 atomic number  1 has       23164 grid points.
 IPart=  1 Atom   5 batch    4 overlaps    8 atoms,    82 shells and     8 DB shells.   NGrid=      1180
 Symmetry reduced   590 angular points to   590 for atom    5.
 Pruned (  99, 590) grid will be used in numerical quadrature.
 IPart= 14 Atom number   5 atomic number  1 has       23164 grid points.
 IPart= 14 Atom   5 batch    5 overlaps    8 atoms,    82 shells and     8 DB shells.   NGrid=      1180
 Symmetry reduced   590 angular points to   590 for atom    5.
 Pruned (  99, 590) grid will be used in numerical quadrature.
 Pruned (  99, 590) grid will be used in numerical quadrature.
 IPart=  9 Atom number   5 atomic number  1 has       23164 grid points.
 IPart=  6 Atom number   5 atomic number  1 has       23164 grid points.
 IPart=  9 Atom   5 batch    7 overlaps    8 atoms,    82 shells and     8 DB shells.   NGrid=      1180
 IPart=  6 Atom   5 batch    6 overlaps    8 atoms,    82 shells and     8 DB shells.   NGrid=      1180
 Symmetry reduced   590 angular points to   590 for atom    5.
 Symmetry reduced   590 angular points to   590 for atom    5.
 Pruned (  99, 590) grid will be used in numerical quadrature.
 IPart=  2 Atom number   5 atomic number  1 has       23164 grid points.
 IPart=  2 Atom   5 batch    8 overlaps    8 atoms,    82 shells and     8 DB shells.   NGrid=      1180
 Symmetry reduced   590 angular points to   590 for atom    5.
 Pruned (  99, 590) grid will be used in numerical quadrature.
 Pruned (  99, 590) grid will be used in numerical quadrature.
 IPart=  3 Atom number   5 atomic number  1 has       23164 grid points.
 IPart=  5 Atom number   5 atomic number  1 has       23164 grid points.
 IPart=  3 Atom   5 batch    9 overlaps    8 atoms,    82 shells and     8 DB shells.   NGrid=      1180
 IPart=  5 Atom   5 batch   10 overlaps    8 atoms,    82 shells and     8 DB shells.   NGrid=      1180
 Symmetry reduced   590 angular points to   590 for atom    5.
 Symmetry reduced   590 angular points to   590 for atom    5.
 Pruned (  99, 590) grid will be used in numerical quadrature.
 IPart= 12 Atom number   5 atomic number  1 has       23164 grid points.
 IPart= 12 Atom   5 batch   11 overlaps    8 atoms,    82 shells and     8 DB shells.   NGrid=      1180
 Symmetry reduced   590 angular points to   590 for atom    5.
 Pruned (  99, 590) grid will be used in numerical quadrature.
 IPart= 11 Atom number   4 atomic number  1 has       23164 grid points.
 Pruned (  99, 590) grid will be used in numerical quadrature.
 IPart= 11 Atom number   5 atomic number  1 has       23164 grid points.
 IPart= 11 Atom   5 batch   12 overlaps    8 atoms,    82 shells and     8 DB shells.   NGrid=      1180
 Symmetry reduced   590 angular points to   590 for atom    5.
 Pruned (  99, 590) grid will be used in numerical quadrature.
 IPart= 13 Atom number   5 atomic number  1 has       23164 grid points.
 IPart= 13 Atom   5 batch   13 overlaps    8 atoms,    82 shells and     8 DB shells.   NGrid=       604
 Symmetry reduced   302 angular points to   302 for atom    5.
 Pruned (  99, 590) grid will be used in numerical quadrature.
 IPart=  4 Atom number   5 atomic number  1 has       23164 grid points.
 IPart=  4 Atom   5 batch   14 overlaps    8 atoms,    81 shells and     8 DB shells.   NGrid=       604
 Symmetry reduced   302 angular points to   302 for atom    5.
 IPart= 13 Atom   5 batch   15 overlaps    8 atoms,    78 shells and     8 DB shells.   NGrid=       604
 IPart=  4 Atom   5 batch   16 overlaps    8 atoms,    74 shells and     8 DB shells.   NGrid=       604
 Pruned (  99, 590) grid will be used in numerical quadrature.
 IPart= 11 Atom   5 batch   17 overlaps    8 atoms,    66 shells and     8 DB shells.   NGrid=       604
 IPart= 13 Atom   5 batch   19 overlaps    8 atoms,    32 shells and     7 DB shells.   NGrid=       604
 Symmetry reduced   302 angular points to   302 for atom    5.
 IPart= 10 Atom number   5 atomic number  1 has       23164 grid points.
 IPart= 10 Atom   5 batch   18 overlaps    8 atoms,    49 shells and     8 DB shells.   NGrid=       604
 Symmetry reduced   302 angular points to   302 for atom    5.
 IPart=  4 Atom   5 batch   20 overlaps    8 atoms,    22 shells and     4 DB shells.   NGrid=       604
 IPart= 12 Atom   5 batch   21 overlaps    8 atoms,     9 shells and     0 DB shells.   NGrid=       604
 Symmetry reduced   302 angular points to   302 for atom    5.
 IPart=  1 Atom   5 batch   22 overlaps    8 atoms,     5 shells and     0 DB shells.   NGrid=       302
 Symmetry reduced   302 angular points to   302 for atom    5.
 Pruned (  99, 590) grid will be used in numerical quadrature.
 Pruned (  99, 590) grid will be used in numerical quadrature.
 IPart= 13 Atom number   6 atomic number  1 has       23164 grid points.
 IPart=  3 Atom number   6 atomic number  1 has       23164 grid points.
 IPart= 13 Atom   6 batch    1 overlaps    8 atoms,    81 shells and     8 DB shells.   NGrid=      2838
 IPart=  3 Atom   6 batch    2 overlaps    8 atoms,    81 shells and     8 DB shells.   NGrid=      1552
 Symmetry reduced    86 angular points to    86 for atom    6.
 Symmetry reduced   194 angular points to   194 for atom    6.
 Pruned (  99, 590) grid will be used in numerical quadrature.
 Pruned (  99, 590) grid will be used in numerical quadrature.
 IPart=  9 Atom number   6 atomic number  1 has       23164 grid points.
 IPart= 14 Atom number   6 atomic number  1 has       23164 grid points.
 IPart=  9 Atom   6 batch    3 overlaps    8 atoms,    81 shells and     8 DB shells.   NGrid=      2416
 IPart= 14 Atom   6 batch    4 overlaps    8 atoms,    82 shells and     8 DB shells.   NGrid=      1180
 Symmetry reduced   302 angular points to   302 for atom    6.
 Symmetry reduced   590 angular points to   590 for atom    6.
 Pruned (  99, 590) grid will be used in numerical quadrature.
 IPart=  1 Atom number   6 atomic number  1 has       23164 grid points.
 IPart=  1 Atom   6 batch    5 overlaps    8 atoms,    82 shells and     8 DB shells.   NGrid=      1180
 Symmetry reduced   590 angular points to   590 for atom    6.
 Pruned (  99, 590) grid will be used in numerical quadrature.
 IPart=  4 Atom number   6 atomic number  1 has       23164 grid points.
 Pruned (  99, 590) grid will be used in numerical quadrature.
 IPart=  4 Atom   6 batch    6 overlaps    8 atoms,    82 shells and     8 DB shells.   NGrid=      1180
 IPart=  6 Atom number   6 atomic number  1 has       23164 grid points.
 Symmetry reduced   590 angular points to   590 for atom    6.
 IPart=  6 Atom   6 batch    7 overlaps    8 atoms,    82 shells and     8 DB shells.   NGrid=      1180
 Symmetry reduced   590 angular points to   590 for atom    6.
 Pruned (  99, 590) grid will be used in numerical quadrature.
 IPart=  5 Atom number   6 atomic number  1 has       23164 grid points.
 Pruned (  99, 590) grid will be used in numerical quadrature.
 IPart=  5 Atom   6 batch    8 overlaps    8 atoms,    82 shells and     8 DB shells.   NGrid=      1180
 IPart=  2 Atom number   6 atomic number  1 has       23164 grid points.
 Symmetry reduced   590 angular points to   590 for atom    6.
 IPart=  2 Atom   6 batch    9 overlaps    8 atoms,    82 shells and     8 DB shells.   NGrid=      1180
 Symmetry reduced   590 angular points to   590 for atom    6.
 Pruned (  99, 590) grid will be used in numerical quadrature.
 IPart= 12 Atom number   6 atomic number  1 has       23164 grid points.
 IPart= 12 Atom   6 batch   10 overlaps    8 atoms,    82 shells and     8 DB shells.   NGrid=      1180
 Symmetry reduced   590 angular points to   590 for atom    6.
 Pruned (  99, 590) grid will be used in numerical quadrature.
 IPart= 10 Atom number   6 atomic number  1 has       23164 grid points.
 IPart= 10 Atom   6 batch   11 overlaps    8 atoms,    82 shells and     8 DB shells.   NGrid=      1180
 Symmetry reduced   590 angular points to   590 for atom    6.
 Pruned (  99, 590) grid will be used in numerical quadrature.
 IPart=  8 Atom number   5 atomic number  1 has       23164 grid points.
 Pruned (  99, 590) grid will be used in numerical quadrature.
 IPart=  8 Atom number   6 atomic number  1 has       23164 grid points.
 IPart=  8 Atom   6 batch   12 overlaps    8 atoms,    82 shells and     8 DB shells.   NGrid=      1180
 Symmetry reduced   590 angular points to   590 for atom    6.
 Pruned (  99, 590) grid will be used in numerical quadrature.
 IPart= 11 Atom number   6 atomic number  1 has       23164 grid points.
 IPart= 11 Atom   6 batch   13 overlaps    8 atoms,    82 shells and     8 DB shells.   NGrid=       604
 Symmetry reduced   302 angular points to   302 for atom    6.
 Pruned (  99, 590) grid will be used in numerical quadrature.
 IPart=  7 Atom number   6 atomic number  1 has       23164 grid points.
 IPart=  7 Atom   6 batch   14 overlaps    8 atoms,    82 shells and     8 DB shells.   NGrid=       604
 Symmetry reduced   302 angular points to   302 for atom    6.
 IPart=  7 Atom   6 batch   15 overlaps    8 atoms,    78 shells and     8 DB shells.   NGrid=       604
[...]
 2166 Fit       0.129512
 2167 Fit       0.128884
 2168 Fit       0.128775
 2169 Fit       0.129099
 2170 Fit       0.129790
 2171 Fit       0.130802
 2172 Fit       0.132112
 2173 Fit       0.133726
 2174 Fit       0.135687
 2175 Fit       0.138085
 2176 Fit       0.141065
 2177 Fit       0.144838
 2178 Fit       0.149687
 2179 Fit       0.156197
 2180 Fit       0.164053
 2181 Fit       0.130949
 2182 Fit       0.129808
 2183 Fit       0.129262
 2184 Fit       0.129230
 2185 Fit       0.129632
 2186 Fit       0.130402
 2187 Fit       0.131492
 2188 Fit       0.150161
 2189 Fit       0.164128
 2190 Fit       0.132356
 2191 Fit       0.130942
 2192 Fit       0.130191
 2193 Fit       0.130035
 2194 Fit       0.130393
 2195 Fit       0.131188
 2196 Fit       0.132917
 2197 Fit       0.131731
 2198 Fit       0.131256
 2199 Fit       0.131429
 2200 Fit       0.135580
 2201 Fit       0.133897
 2202 Fit       0.133000
 2203 Fit       0.132874
 2204 Fit       0.160067
 2205 Fit       0.137571
 2206 Fit       0.135791
 2207 Fit       0.134915
 2208 Fit       0.159808
 2209 Fit       0.152846
 2210 Fit       0.147462
 2211 Fit       0.143323
 2212 Fit       0.140267
 2213 Fit       0.138259
 2214 Fit       0.159890
 2215 Fit       0.152541
 2216 Fit       0.147069
 2217 Fit       0.143244
 2218 Fit       0.164060
 2219 Fit       0.156033
 2220 Fit       0.149925
 2221 Fit       0.163967
 2222 Fit       0.156315
 2223 Fit       0.168223
 2224 Fit       0.166694
 2225 Fit       0.167343
 2226 Fit       0.164166
 2227 Fit       0.162540
 2228 Fit       0.162379
 2229 Fit       0.163688
 2230 Fit       0.166635
 2231 Fit       0.167415
 2232 Fit       0.161127
 2233 Fit       0.159516
 2234 Fit       0.159025
 2235 Fit       0.159616
 2236 Fit       0.161357
 2237 Fit       0.164429
 2238 Fit       0.168451
 2239 Fit       0.164005
 2240 Fit       0.158921
 2241 Fit       0.157389
 2242 Fit       0.156729
 2243 Fit       0.156894
 2244 Fit       0.157904
 2245 Fit       0.159848
 2246 Fit       0.162887
 2247 Fit       0.165179
 2248 Fit       0.161445
 2249 Fit       0.157425
 2250 Fit       0.155930
 2251 Fit       0.155211
 2252 Fit       0.155220
 2253 Fit       0.155963
 2254 Fit       0.157502
 2255 Fit       0.159954
 2256 Fit       0.163509
 2257 Fit       0.168055
 2258 Fit       0.163248
 2259 Fit       0.159803
 2260 Fit       0.156557
 2261 Fit       0.155114
 2262 Fit       0.154363
 2263 Fit       0.154259
 2264 Fit       0.154799
 2265 Fit       0.156025
 2266 Fit       0.158024
 2267 Fit       0.160933
 2268 Fit       0.164951
 2269 Fit       0.166268
 2270 Fit       0.161948
 2271 Fit       0.158785
 2272 Fit       0.156273
 2273 Fit       0.154857
 2274 Fit       0.154096
 2275 Fit       0.153947
 2276 Fit       0.154404
 2277 Fit       0.155501
 2278 Fit       0.157313
 2279 Fit       0.159957
 2280 Fit       0.163606
 2281 Fit       0.165568
 2282 Fit       0.161463
 2283 Fit       0.158429
 2284 Fit       0.156557
 2285 Fit       0.155114
 2286 Fit       0.154363
 2287 Fit       0.154259
 2288 Fit       0.154799
 2289 Fit       0.156025
 2290 Fit       0.158024
 2291 Fit       0.160933
 2292 Fit       0.164951
 2293 Fit       0.166268
 2294 Fit       0.161948
 2295 Fit       0.158785
 2296 Fit       0.157425
 2297 Fit       0.155930
 2298 Fit       0.155211
 2299 Fit       0.155220
 2300 Fit       0.155963
 2301 Fit       0.157502
 2302 Fit       0.159954
 2303 Fit       0.163509
 2304 Fit       0.168055
 2305 Fit       0.163248
 2306 Fit       0.159803
 2307 Fit       0.158921
 2308 Fit       0.157389
 2309 Fit       0.156729
 2310 Fit       0.156894
 2311 Fit       0.157904
 2312 Fit       0.159848
 2313 Fit       0.162887
 2314 Fit       0.165179
 2315 Fit       0.161445
 2316 Fit       0.161127
 2317 Fit       0.159516
 2318 Fit       0.159025
 2319 Fit       0.159616
 2320 Fit       0.161357
 2321 Fit       0.164429
 2322 Fit       0.168451
 2323 Fit       0.164005
 2324 Fit       0.164166
 2325 Fit       0.162540
 2326 Fit       0.162379
 2327 Fit       0.163688
 2328 Fit       0.166635
 2329 Fit       0.167415
 2330 Fit       0.168223
 2331 Fit       0.166694
 2332 Fit       0.167343
 2333 Fit       0.158921
 2334 Fit       0.161127
 2335 Fit       0.158433
 2336 Fit       0.156700
 2337 Fit       0.157425
 2338 Fit       0.160050
 2339 Fit       0.162046
 2340 Fit       0.164166
 2341 Fit       0.161416
 2342 Fit       0.158583
 2343 Fit       0.156374
 2344 Fit       0.155222
 2345 Fit       0.155286
 2346 Fit       0.156557
 2347 Fit       0.158878
 2348 Fit       0.161846
 2349 Fit       0.164696
 2350 Fit       0.166331
 2351 Fit       0.166049
 2352 Fit       0.168223
 2353 Fit       0.165364
 2354 Fit       0.162291
 2355 Fit       0.159392
 2356 Fit       0.157003
 2357 Fit       0.155314
 2358 Fit       0.154393
 2359 Fit       0.154250
 2360 Fit       0.154880
 2361 Fit       0.156273
 2362 Fit       0.158397
 2363 Fit       0.161158
 2364 Fit       0.164365
 2365 Fit       0.167705
 2366 Fit       0.166985
 2367 Fit       0.163539
 2368 Fit       0.160424
 2369 Fit       0.157857
 2370 Fit       0.155932
 2371 Fit       0.154660
 2372 Fit       0.154020
 2373 Fit       0.153988
 2374 Fit       0.154556
 2375 Fit       0.155734
 2376 Fit       0.157537
 2377 Fit       0.159965
 2378 Fit       0.162970
 2379 Fit       0.166451
 2380 Fit       0.164985
 2381 Fit       0.161589
 2382 Fit       0.158854
 2383 Fit       0.156794
 2384 Fit       0.155370
 2385 Fit       0.154533
 2386 Fit       0.154241
 2387 Fit       0.154473
 2388 Fit       0.155233
 2389 Fit       0.156548
 2390 Fit       0.158455
 2391 Fit       0.160990
 2392 Fit       0.164148
 2393 Fit       0.167054
 2394 Fit       0.163397
 2395 Fit       0.160502
 2396 Fit       0.158314
 2397 Fit       0.156755
 2398 Fit       0.155754
 2399 Fit       0.155256
 2400 Fit       0.155227
 2401 Fit       0.155659
 2402 Fit       0.156568
 2403 Fit       0.157996
 2404 Fit       0.159999
 2405 Fit       0.162646
 2406 Fit       0.165981
 2407 Fit       0.164546
 2408 Fit       0.161683
 2409 Fit       0.159587
 2410 Fit       0.158141
 2411 Fit       0.157253
 2412 Fit       0.156864
 2413 Fit       0.156942
 2414 Fit       0.157484
 2415 Fit       0.158519
 2416 Fit       0.160102
 2417 Fit       0.162324
 2418 Fit       0.165301
 2419 Fit       0.169164
 2420 Fit       0.163656
 2421 Fit       0.161706
 2422 Fit       0.160395
 2423 Fit       0.159630
 2424 Fit       0.159351
 2425 Fit       0.159532
 2426 Fit       0.160178
 2427 Fit       0.161327
 2428 Fit       0.163052
 2429 Fit       0.165472
 2430 Fit       0.168764
 2431 Fit       0.164493
 2432 Fit       0.163478
 2433 Fit       0.162991
 2434 Fit       0.162988
 2435 Fit       0.163462
 2436 Fit       0.164438
 2437 Fit       0.165986
 2438 Fit       0.168223
 2439 Fit       0.164493
 2440 Fit       0.163478
 2441 Fit       0.162991
 2442 Fit       0.162988
 2443 Fit       0.163462
 2444 Fit       0.164438
 2445 Fit       0.165986
 2446 Fit       0.168223
 2447 Fit       0.163656
 2448 Fit       0.161706
 2449 Fit       0.160395
 2450 Fit       0.159630
 2451 Fit       0.159351
 2452 Fit       0.159532
 2453 Fit       0.160178
 2454 Fit       0.161327
 2455 Fit       0.163052
 2456 Fit       0.165472
 2457 Fit       0.168764
 2458 Fit       0.164546
 2459 Fit       0.161683
 2460 Fit       0.159587
 2461 Fit       0.158141
 2462 Fit       0.157253
 2463 Fit       0.156864
 2464 Fit       0.156942
 2465 Fit       0.157484
 2466 Fit       0.158519
 2467 Fit       0.160102
 2468 Fit       0.162324
 2469 Fit       0.165301
 2470 Fit       0.169164
 2471 Fit       0.167054
 2472 Fit       0.163397
 2473 Fit       0.160502
 2474 Fit       0.158314
 2475 Fit       0.156755
 2476 Fit       0.155754
 2477 Fit       0.155256
 2478 Fit       0.155227
 2479 Fit       0.155659
 2480 Fit       0.156568
 2481 Fit       0.157996
 2482 Fit       0.159999
 2483 Fit       0.162646
 2484 Fit       0.165981
 2485 Fit       0.164985
 2486 Fit       0.161589
 2487 Fit       0.158854
 2488 Fit       0.156794
 2489 Fit       0.155370
 2490 Fit       0.154533
 2491 Fit       0.154241
 2492 Fit       0.154473
 2493 Fit       0.155233
 2494 Fit       0.156548
 2495 Fit       0.158455
 2496 Fit       0.160990
 2497 Fit       0.164148
 2498 Fit       0.166985
 2499 Fit       0.163539
 2500 Fit       0.160424
 2501 Fit       0.157857
 2502 Fit       0.155932
 2503 Fit       0.154660
 2504 Fit       0.154020
 2505 Fit       0.153988
 2506 Fit       0.154556
 2507 Fit       0.155734
 2508 Fit       0.157537
 2509 Fit       0.159965
 2510 Fit       0.162970
 2511 Fit       0.166451
 2512 Fit       0.168223
 2513 Fit       0.165364
 2514 Fit       0.162291
 2515 Fit       0.159392
 2516 Fit       0.157003
 2517 Fit       0.155314
 2518 Fit       0.154393
 2519 Fit       0.154250
 2520 Fit       0.154880
 2521 Fit       0.156273
 2522 Fit       0.158397
 2523 Fit       0.161158
 2524 Fit       0.164365
 2525 Fit       0.167705
 2526 Fit       0.164166
 2527 Fit       0.161416
 2528 Fit       0.158583
 2529 Fit       0.156374
 2530 Fit       0.155222
 2531 Fit       0.155286
 2532 Fit       0.156557
 2533 Fit       0.158878
 2534 Fit       0.161846
 2535 Fit       0.164696
 2536 Fit       0.166331
 2537 Fit       0.166049
 2538 Fit       0.161127
 2539 Fit       0.158433
 2540 Fit       0.156700
 2541 Fit       0.157425
 2542 Fit       0.160050
 2543 Fit       0.162046
 2544 Fit       0.158921
 2545 Fit       0.141234
 2546 Fit       0.139874
 2547 Fit       0.145623
 2548 Fit       0.147626
 2549 Fit       0.143189
 2550 Fit       0.137837
 2551 Fit       0.136431
 2552 Fit       0.139072
 2553 Fit       0.144885
 2554 Fit       0.151145
 2555 Fit       0.155693
 2556 Fit       0.156163
 2557 Fit       0.152110
 2558 Fit       0.145789
 2559 Fit       0.139753
 2560 Fit       0.135335
 2561 Fit       0.132997
 2562 Fit       0.132852
 2563 Fit       0.134911
 2564 Fit       0.138807
 2565 Fit       0.144380
 2566 Fit       0.151001
 2567 Fit       0.157994
 2568 Fit       0.164203
 2569 Fit       0.167988
 2570 Fit       0.167732
 2571 Fit       0.163276
 2572 Fit       0.156375
 2573 Fit       0.149102
 2574 Fit       0.142657
 2575 Fit       0.137480
 2576 Fit       0.133672
 2577 Fit       0.131222
 2578 Fit       0.130092
 2579 Fit       0.130259
 2580 Fit       0.131737
 2581 Fit       0.134574
 2582 Fit       0.139072
 2583 Fit       0.144725
 2584 Fit       0.151611
 2585 Fit       0.159487
 2586 Fit       0.167833
 2587 Fit       0.143069
 2588 Fit       0.137898
 2589 Fit       0.133911
 2590 Fit       0.131027
 2591 Fit       0.129176
 2592 Fit       0.128305
 2593 Fit       0.128389
 2594 Fit       0.129441
 2595 Fit       0.131513
 2596 Fit       0.134691
 2597 Fit       0.139874
 2598 Fit       0.145811
 2599 Fit       0.153162
 2600 Fit       0.161883
 2601 Fit       0.136475
 2602 Fit       0.132828
 2603 Fit       0.130149
 2604 Fit       0.128362
 2605 Fit       0.127407
 2606 Fit       0.127253
 2607 Fit       0.127903
 2608 Fit       0.129396
 2609 Fit       0.131809
 2610 Fit       0.135254
 2611 Fit       0.141234
 2612 Fit       0.147405
 2613 Fit       0.155132
 2614 Fit       0.164545
 2615 Fit       0.132671
 2616 Fit       0.130107
 2617 Fit       0.128334
 2618 Fit       0.127288
 2619 Fit       0.126934
 2620 Fit       0.127265
 2621 Fit       0.128304
 2622 Fit       0.130109
 2623 Fit       0.132771
 2624 Fit       0.136423
 2625 Fit       0.143189
 2626 Fit       0.149997
 2627 Fit       0.158718
 2628 Fit       0.169698
 2629 Fit       0.132354
 2630 Fit       0.130012
 2631 Fit       0.128443
 2632 Fit       0.127585
 2633 Fit       0.127404
 2634 Fit       0.127901
 2635 Fit       0.129112
 2636 Fit       0.131106
 2637 Fit       0.133998
 2638 Fit       0.137952
 2639 Fit       0.145789
 2640 Fit       0.153169
 2641 Fit       0.162816
 2642 Fit       0.130806
 2643 Fit       0.129419
 2644 Fit       0.128722
 2645 Fit       0.128690
 2646 Fit       0.129333
 2647 Fit       0.130695
 2648 Fit       0.132858
 2649 Fit       0.135955
 2650 Fit       0.140175
 2651 Fit       0.149102
 2652 Fit       0.157192
 2653 Fit       0.130847
 2654 Fit       0.130829
 2655 Fit       0.131514
 2656 Fit       0.132954
 2657 Fit       0.135242
 2658 Fit       0.138530
 2659 Fit       0.143041
 2660 Fit       0.135850
 2661 Fit       0.138177
 2662 Fit       0.141639
 2663 Fit       0.135850
 2664 Fit       0.138177
 2665 Fit       0.141639
 2666 Fit       0.149102
 2667 Fit       0.157192
 2668 Fit       0.130847
 2669 Fit       0.130829
 2670 Fit       0.131514
 2671 Fit       0.132954
 2672 Fit       0.135242
 2673 Fit       0.138530
 2674 Fit       0.143041
 2675 Fit       0.145789
 2676 Fit       0.153169
 2677 Fit       0.162816
 2678 Fit       0.130806
 2679 Fit       0.129419
 2680 Fit       0.128722
 2681 Fit       0.128690
 2682 Fit       0.129333
 2683 Fit       0.130695
 2684 Fit       0.132858
 2685 Fit       0.135955
 2686 Fit       0.140175
 2687 Fit       0.143189
 2688 Fit       0.149997
 2689 Fit       0.158718
 2690 Fit       0.169698
 2691 Fit       0.132354
 2692 Fit       0.130012
 2693 Fit       0.128443
 2694 Fit       0.127585
 2695 Fit       0.127404
 2696 Fit       0.127901
 2697 Fit       0.129112
 2698 Fit       0.131106
 2699 Fit       0.133998
 2700 Fit       0.137952
 2701 Fit       0.141234
 2702 Fit       0.147405
 2703 Fit       0.155132
 2704 Fit       0.164545
 2705 Fit       0.132671
 2706 Fit       0.130107
 2707 Fit       0.128334
 2708 Fit       0.127288
 2709 Fit       0.126934
 2710 Fit       0.127265
 2711 Fit       0.128304
 2712 Fit       0.130109
 2713 Fit       0.132771
 2714 Fit       0.136423
 2715 Fit       0.139874
 2716 Fit       0.145811
 2717 Fit       0.153162
 2718 Fit       0.161883
 2719 Fit       0.136475
 2720 Fit       0.132828
 2721 Fit       0.130149
 2722 Fit       0.128362
 2723 Fit       0.127407
 2724 Fit       0.127253
 2725 Fit       0.127903
 2726 Fit       0.129396
 2727 Fit       0.131809
 2728 Fit       0.135254
 2729 Fit       0.139072
 2730 Fit       0.144725
 2731 Fit       0.151611
 2732 Fit       0.159487
 2733 Fit       0.167833
 2734 Fit       0.143069
 2735 Fit       0.137898
 2736 Fit       0.133911
 2737 Fit       0.131027
 2738 Fit       0.129176
 2739 Fit       0.128305
 2740 Fit       0.128389
 2741 Fit       0.129441
 2742 Fit       0.131513
 2743 Fit       0.134691
 2744 Fit       0.138807
 2745 Fit       0.144380
 2746 Fit       0.151001
 2747 Fit       0.157994
 2748 Fit       0.164203
 2749 Fit       0.167988
 2750 Fit       0.167732
 2751 Fit       0.163276
 2752 Fit       0.156375
 2753 Fit       0.149102
 2754 Fit       0.142657
 2755 Fit       0.137480
 2756 Fit       0.133672
 2757 Fit       0.131222
 2758 Fit       0.130092
 2759 Fit       0.130259
 2760 Fit       0.131737
 2761 Fit       0.134574
 2762 Fit       0.139072
 2763 Fit       0.144885
 2764 Fit       0.151145
 2765 Fit       0.155693
 2766 Fit       0.156163
 2767 Fit       0.152110
 2768 Fit       0.145789
 2769 Fit       0.139753
 2770 Fit       0.135335
 2771 Fit       0.132997
 2772 Fit       0.132852
 2773 Fit       0.134911
 2774 Fit       0.139874
 2775 Fit       0.145623
 2776 Fit       0.147626
 2777 Fit       0.143189
 2778 Fit       0.137837
 2779 Fit       0.136431
 2780 Fit       0.141234
 2781 Fit       0.149102
 2782 Fit       0.143602
 2783 Fit       0.140808
 2784 Fit       0.158491
 2785 Fit       0.149298
 2786 Fit       0.142893
 2787 Fit       0.138696
 2788 Fit       0.136369
 2789 Fit       0.135769
 2790 Fit       0.166316
 2791 Fit       0.154767
 2792 Fit       0.146431
 2793 Fit       0.140461
 2794 Fit       0.136331
 2795 Fit       0.133720
 2796 Fit       0.132464
 2797 Fit       0.132528
 2798 Fit       0.133991
 2799 Fit       0.161638
 2800 Fit       0.151604
 2801 Fit       0.144183
 2802 Fit       0.138710
 2803 Fit       0.134756
 2804 Fit       0.132053
 2805 Fit       0.130444
 2806 Fit       0.129864
 2807 Fit       0.130329
 2808 Fit       0.131932
 2809 Fit       0.159295
 2810 Fit       0.149807
 2811 Fit       0.142716
 2812 Fit       0.137424
 2813 Fit       0.133539
 2814 Fit       0.130807
 2815 Fit       0.129073
 2816 Fit       0.128267
 2817 Fit       0.128385
 2818 Fit       0.129489
 2819 Fit       0.131708
 2820 Fit       0.169012
 2821 Fit       0.157295
 2822 Fit       0.148469
 2823 Fit       0.141781
 2824 Fit       0.136721
 2825 Fit       0.132944
 2826 Fit       0.130222
 2827 Fit       0.128411
 2828 Fit       0.127437
 2829 Fit       0.127285
 2830 Fit       0.127992
 2831 Fit       0.129651
 2832 Fit       0.161634
 2833 Fit       0.151893
 2834 Fit       0.144472
 2835 Fit       0.138807
 2836 Fit       0.134512
 2837 Fit       0.131321
 2838 Fit       0.129061
 2839 Fit       0.127628
 2840 Fit       0.126975
 2841 Fit       0.127106
 2842 Fit       0.128076
 2843 Fit       0.129986
 2844 Fit       0.169012
 2845 Fit       0.157295
 2846 Fit       0.148469
 2847 Fit       0.141781
 2848 Fit       0.136721
 2849 Fit       0.132944
 2850 Fit       0.130222
 2851 Fit       0.128411
 2852 Fit       0.127437
 2853 Fit       0.127285
 2854 Fit       0.127992
 2855 Fit       0.129651
 2856 Fit       0.159295
 2857 Fit       0.149807
 2858 Fit       0.142716
 2859 Fit       0.137424
 2860 Fit       0.133539
 2861 Fit       0.130807
 2862 Fit       0.129073
 2863 Fit       0.128267
 2864 Fit       0.128385
 2865 Fit       0.129489
 2866 Fit       0.131708
 2867 Fit       0.161638
 2868 Fit       0.151604
 2869 Fit       0.144183
 2870 Fit       0.138710
 2871 Fit       0.134756
 2872 Fit       0.132053
 2873 Fit       0.130444
 2874 Fit       0.129864
 2875 Fit       0.130329
 2876 Fit       0.131932
 2877 Fit       0.166316
 2878 Fit       0.154767
 2879 Fit       0.146431
 2880 Fit       0.140461
 2881 Fit       0.136331
 2882 Fit       0.133720
 2883 Fit       0.132464
 2884 Fit       0.132528
 2885 Fit       0.133991
 2886 Fit       0.158491
 2887 Fit       0.149298
 2888 Fit       0.142893
 2889 Fit       0.138696
 2890 Fit       0.136369
 2891 Fit       0.135769
 2892 Fit       0.149102
 2893 Fit       0.143602
 2894 Fit       0.140808
 -----------------------------------------------------------------
 Leave Link  602 at Tue Sep 30 17:03:04 2025, MaxMem=  4294967296 cpu:               1.4 elap:               0.1
 (Enter /software/sse/easybuild/prefix/software/Gaussian/16.C.01-avx2-nsc1/g16/l9999.exe)

 Test job not archived.
 1\1\NSC-N81\FOpt\RMP2-FC\Aug-CC-pVTZ\C1H6N1(1+)\X_DAVVA\30-Sep-2025\0\
 \#P MP2/aug-cc-pvtz Opt=tight density=MP2 Pop=(MK,Hirshfeld) iop(6/33=
 2) iop(6/42=6) maxdisk=128GB\\methylammonium\\1,1\N,0.0000000002,0.000
 0016301,-0.7064600798\C,-0.0000000003,0.0000004519,0.7974968598\H,0.00
 00000007,0.9515438367,-1.0783088514\H,-0.8240595655,-0.4757682606,-1.0
 783106181\H,0.8240595659,-0.4757682611,-1.0783106176\H,-0.892060276,0.
 5150314225,1.1354281309\H,0.8920602756,0.515031422,1.1354281315\H,-0.0
 000000007,-1.0300622545,1.135427042\\Version=ES64L-G16RevC.01\State=1-
 A'\HF=-95.6186473\MP2=-96.0208045\RMSD=2.790e-09\RMSF=7.151e-06\Dipole
 =0.0000005,0.8550021,0.\Quadrupole=-0.8164754,1.6329474,-0.816472,0.00
 00008,0.,0.\PG=CS [SG(C1H2N1),X(H4)]\\@


 WE'RE IN THE POSITION OF A VISITOR FROM ANOTHER
 DIMENSION WHO COMES TO EARTH AND SEES A CHESS MATCH.
 ASSUMING HE KNOWS IT'S A GAME, HE'S GOT TWO PROBLEMS:
 FIRST, FIGURE OUT THE RULES, AND SECOND, FIGURE OUT HOW TO WIN.
 NINETY PERCENT OF SCIENCE (INCLUDING VIRTUALLY ALL OF CHEMISRY)
 IS IN THAT SECOND CATEGORY.  THEY'RE TRYING TO APPLY
 THE LAWS THAT ARE ALREADY KNOWN.

                     -- SHELDON GLASHOW, 1979
 Job cpu time:       0 days  0 hours 58 minutes 40.5 seconds.
 Elapsed time:       0 days  0 hours  4 minutes 10.2 seconds.
 File lengths (MBytes):  RWF=     34 Int=      0 D2E=      0 Chk=     12 Scr=      1
 Normal termination of Gaussian 16 at Tue Sep 30 17:03:05 2025.
